
     Program PWSCF v.6.8 starts on 17Oct2022 at 22:33: 3 

     This program is part of the open-source Quantum ESPRESSO suite
     for quantum simulation of materials; please cite
         "P. Giannozzi et al., J. Phys.:Condens. Matter 21 395502 (2009);
         "P. Giannozzi et al., J. Phys.:Condens. Matter 29 465901 (2017);
         "P. Giannozzi et al., J. Chem. Phys. 152 154105 (2020);
          URL http://www.quantum-espresso.org", 
     in publications or presentations arising from this work. More details at
     http://www.quantum-espresso.org/quote

     Parallel version (MPI), running on   128 processors

     MPI processes distributed on     1 nodes
     K-points division:     npool     =       8
     R & G space division:  proc/nbgrp/npool/nimage =      16
     174630 MiB available memory on the printing compute node when the environment starts

     Reading input from aiida.in

     Current dimensions of program PWSCF are:
     Max number of different atomic species (ntypx) = 10
     Max number of k-points (npk) =  40000
     Max angular momentum in pseudopotentials (lmaxx) =  4
     Message from routine setup:
     using ibrav=0 with symmetry is DISCOURAGED, use correct ibrav instead

     Subspace diagonalization in iterative solution of the eigenvalue problem:
     one sub-group per band group will be used
     scalapack distributed-memory algorithm (size of sub-group:  4*  4 procs)


     Parallelization info
     --------------------
     sticks:   dense  smooth     PW     G-vecs:    dense   smooth      PW
     Min         108      54     18                 6369     2248     415
     Max         109      55     19                 6373     2250     420
     Sum        1733     867    289               101923    35989    6677

     Using Slab Decomposition



     bravais-lattice index     =            0
     lattice parameter (alat)  =      10.6603  a.u.
     unit-cell volume          =    1289.0923 (a.u.)^3
     number of atoms/cell      =           10
     number of atomic types    =            3
     number of electrons       =        94.00
     number of Kohn-Sham states=           56
     kinetic-energy cutoff     =      35.0000  Ry
     charge density cutoff     =     280.0000  Ry
     scf convergence threshold =      2.0E-09
     mixing beta               =       0.4000
     number of iterations used =            8  plain     mixing
     Exchange-correlation= SLA  PW   PSX  PSC
                           (   1   4  10   8   0   0   0)

     celldm(1)=  10.660297  celldm(2)=   0.000000  celldm(3)=   0.000000
     celldm(4)=   0.000000  celldm(5)=   0.000000  celldm(6)=   0.000000

     crystal axes: (cart. coord. in units of alat)
               a(1) = (   0.929138   0.369730  -0.001677 )  
               a(2) = (  -0.929138   0.369730   0.001677 )  
               a(3) = (  -0.848654  -0.000000   1.550281 )  

     reciprocal axes: (cart. coord. in units 2 pi/alat)
               b(1) = (  0.538666  1.352337  0.294876 )  
               b(2) = ( -0.538666  1.352337 -0.294876 )  
               b(3) = (  0.001166  0.000000  0.645683 )  


     PseudoPot. # 1 for Rh read from file:
     ./pseudo/Rh_ONCV_PBEsol-1.0.upf
     MD5 check sum: ec594c1794ddd2e1e7b303db34a9ee92
     Pseudo is Norm-conserving, Zval = 17.0
     Generated using ONCVPSP code by D. R. Hamann
     Using radial grid of 1426 points,  6 beta functions with: 
                l(1) =   0
                l(2) =   0
                l(3) =   1
                l(4) =   1
                l(5) =   2
                l(6) =   2

     PseudoPot. # 2 for Si read from file:
     ./pseudo/Si.pbesol-n-rrkjus_psl.1.0.0.UPF
     MD5 check sum: 0f72aaed442cfea083ff16d3bfdace30
     Pseudo is Ultrasoft + core correction, Zval =  4.0
     Generated using "atomic" code by A. Dal Corso  v.6.0 svn rev. 13079
     Using radial grid of 1141 points,  6 beta functions with: 
                l(1) =   0
                l(2) =   0
                l(3) =   1
                l(4) =   1
                l(5) =   2
                l(6) =   2
     Q(r) pseudized with 0 coefficients 


     PseudoPot. # 3 for Y  read from file:
     ./pseudo/y_pbesol_v1.4.uspp.F.UPF
     MD5 check sum: dac24993bfd4491f22c7b9129ad9e93d
     Pseudo is Ultrasoft + core correction, Zval = 11.0
     Generated by new atomic code, or converted to UPF format
     Using radial grid of  885 points,  6 beta functions with: 
                l(1) =   0
                l(2) =   0
                l(3) =   1
                l(4) =   1
                l(5) =   2
                l(6) =   2
     Q(r) pseudized with  8 coefficients,  rinner =    1.200   1.200   1.200
                                                       1.200   1.200

     atomic species   valence    mass     pseudopotential
        Rh            17.00   102.90550     Rh( 1.00)
        Si             4.00    28.08550     Si( 1.00)
        Y             11.00    88.90585     Y ( 1.00)

      4 Sym. Ops., with inversion, found


                                    s                        frac. trans.

      isym =  1     identity                                     

 cryst.   s( 1) = (     1          0          0      )
                  (     0          1          0      )
                  (     0          0          1      )

 cart.    s( 1) = (  1.0000000 -0.0000000  0.0000000 )
                  (  0.0000000  1.0000000  0.0000000 )
                  ( -0.0000000  0.0000000  1.0000000 )


      isym =  2     180 deg rotation - cart. axis [0,1,0]        

 cryst.   s( 2) = (     0          1          0      )
                  (     1          0          0      )
                  (     0          0         -1      )

 cart.    s( 2) = ( -1.0000000  0.0000000 -0.0000000 )
                  ( -0.0000000  1.0000000 -0.0000000 )
                  (  0.0000000 -0.0000000 -1.0000000 )


      isym =  3     inversion                                    

 cryst.   s( 3) = (    -1          0          0      )
                  (     0         -1          0      )
                  (     0          0         -1      )

 cart.    s( 3) = ( -1.0000000  0.0000000 -0.0000000 )
                  ( -0.0000000 -1.0000000 -0.0000000 )
                  (  0.0000000 -0.0000000 -1.0000000 )


      isym =  4     inv. 180 deg rotation - cart. axis [0,1,0]   

 cryst.   s( 4) = (     0         -1          0      )
                  (    -1          0          0      )
                  (     0          0          1      )

 cart.    s( 4) = (  1.0000000 -0.0000000  0.0000000 )
                  (  0.0000000 -1.0000000  0.0000000 )
                  ( -0.0000000  0.0000000  1.0000000 )


   Cartesian axes

     site n.     atom                  positions (alat units)
         1           Y   tau(   1) = (  -0.5679153  -0.0000000   1.0478984  )
         2           Y   tau(   2) = (   1.5775361  -0.0000000   0.4990279  )
         3           Y   tau(   3) = (  -0.1714263   0.3697303   1.3818441  )
         4           Y   tau(   4) = (   1.1810471   0.3697303   0.1650823  )
         5           Si  tau(   5) = (  -0.2168348   0.3697303   0.8764615  )
         6           Si  tau(   6) = (   1.2264556   0.3697303   0.6704648  )
         7           Si  tau(   7) = (  -0.7259591   0.3697303   1.3613332  )
         8           Si  tau(   8) = (   1.7355799   0.3697303   0.1855931  )
         9           Rh  tau(   9) = (   1.0309116   0.0000000   0.5795744  )
        10           Rh  tau(  10) = (  -0.0212908  -0.0000000   0.9673519  )

   Crystallographic axes

     site n.     atom                  positions (cryst. coord.)
         1           Y   tau(   1) = (  0.0030839 -0.0030839  0.6759478  )
         2           Y   tau(   2) = (  0.9969161 -0.9969161  0.3240522  )
         3           Y   tau(   3) = (  0.8151316  0.1848684  0.8920328  )
         4           Y   tau(   4) = (  1.1848684 -0.1848684  0.1079672  )
         5           Si  tau(   5) = (  0.6416463  0.3583537  0.5656632  )
         6           Si  tau(   6) = (  1.3583537 -0.3583537  0.4343368  )
         7           Si  tau(   7) = (  0.5103756  0.4896244  0.8781429  )
         8           Si  tau(   8) = (  1.4896244 -0.4896244  0.1218571  )
         9           Rh  tau(   9) = (  0.7262195 -0.7262195  0.3754226  )
        10           Rh  tau(  10) = (  0.2737805 -0.2737805  0.6245774  )

     number of k points=    47  Marzari-Vanderbilt smearing, width (Ry)=  0.0100
                       cart. coord. in units 2pi/alat
        k(    1) = (   0.0000000   0.0000000   0.0000000), wk =   0.0138889
        k(    2) = (   0.0002914   0.0000000   0.1614206), wk =   0.0277778
        k(    3) = (  -0.0005828  -0.0000000  -0.3228413), wk =   0.0138889
        k(    4) = (  -0.0897776   0.2253895  -0.0491461), wk =   0.0555556
        k(    5) = (  -0.0894862   0.2253895   0.1122746), wk =   0.0555556
        k(    6) = (  -0.0903604   0.2253895  -0.3719873), wk =   0.0555556
        k(    7) = (  -0.0900690   0.2253895  -0.2105667), wk =   0.0555556
        k(    8) = (  -0.1795552   0.4507790  -0.0982921), wk =   0.0555556
        k(    9) = (  -0.1792639   0.4507790   0.0631285), wk =   0.0555556
        k(   10) = (  -0.1801380   0.4507790  -0.4211334), wk =   0.0555556
        k(   11) = (  -0.1798466   0.4507790  -0.2597127), wk =   0.0555556
        k(   12) = (   0.2693328  -0.6761685   0.1474382), wk =   0.0277778
        k(   13) = (   0.2696242  -0.6761685   0.3088588), wk =   0.0555556
        k(   14) = (   0.2687501  -0.6761685  -0.1754031), wk =   0.0277778
        k(   15) = (   0.0000000   0.4507790  -0.0000000), wk =   0.0277778
        k(   16) = (   0.0002914   0.4507790   0.1614206), wk =   0.0555556
        k(   17) = (  -0.0005828   0.4507790  -0.3228413), wk =   0.0277778
        k(   18) = (  -0.0897776   0.6761685  -0.0491461), wk =   0.0555556
        k(   19) = (  -0.0894862   0.6761685   0.1122746), wk =   0.0555556
        k(   20) = (  -0.0903604   0.6761685  -0.3719873), wk =   0.0555556
        k(   21) = (  -0.0900690   0.6761685  -0.2105667), wk =   0.0555556
        k(   22) = (   0.3591105  -0.4507790   0.1965842), wk =   0.0555556
        k(   23) = (   0.3594018  -0.4507790   0.3580048), wk =   0.0555556
        k(   24) = (   0.3585277  -0.4507790  -0.1262571), wk =   0.0555556
        k(   25) = (   0.3588191  -0.4507790   0.0351636), wk =   0.0555556
        k(   26) = (   0.2693328  -0.2253895   0.1474382), wk =   0.0555556
        k(   27) = (   0.2696242  -0.2253895   0.3088588), wk =   0.0555556
        k(   28) = (   0.2687501  -0.2253895  -0.1754031), wk =   0.0555556
        k(   29) = (   0.2690415  -0.2253895  -0.0139825), wk =   0.0555556
        k(   30) = (   0.1795552   0.0000000   0.0982921), wk =   0.0277778
        k(   31) = (   0.1798466   0.0000000   0.2597127), wk =   0.0277778
        k(   32) = (   0.1789725   0.0000000  -0.2245492), wk =   0.0277778
        k(   33) = (   0.1792639   0.0000000  -0.0631285), wk =   0.0277778
        k(   34) = (   0.0000000   0.9015580  -0.0000000), wk =   0.0277778
        k(   35) = (   0.0002914   0.9015580   0.1614206), wk =   0.0555556
        k(   36) = (  -0.0005828   0.9015580  -0.3228413), wk =   0.0277778
        k(   37) = (   0.4488881  -0.2253895   0.2457303), wk =   0.0555556
        k(   38) = (   0.4491795  -0.2253895   0.4071509), wk =   0.0555556
        k(   39) = (   0.4483053  -0.2253895  -0.0771110), wk =   0.0555556
        k(   40) = (   0.4485967  -0.2253895   0.0843096), wk =   0.0555556
        k(   41) = (   0.3591105  -0.0000000   0.1965842), wk =   0.0277778
        k(   42) = (   0.3594018  -0.0000000   0.3580048), wk =   0.0277778
        k(   43) = (   0.3585277  -0.0000000  -0.1262571), wk =   0.0277778
        k(   44) = (   0.3588191  -0.0000000   0.0351636), wk =   0.0277778
        k(   45) = (   0.0000000  -1.3523371   0.0000000), wk =   0.0138889
        k(   46) = (   0.0002914  -1.3523371   0.1614206), wk =   0.0277778
        k(   47) = (  -0.0005828  -1.3523371  -0.3228413), wk =   0.0138889

                       cryst. coord.
        k(    1) = (   0.0000000   0.0000000   0.0000000), wk =   0.0138889
        k(    2) = (   0.0000000  -0.0000000   0.2500000), wk =   0.0277778
        k(    3) = (  -0.0000000   0.0000000  -0.5000000), wk =   0.0138889
        k(    4) = (  -0.0000000   0.1666667   0.0000000), wk =   0.0555556
        k(    5) = (  -0.0000000   0.1666667   0.2500000), wk =   0.0555556
        k(    6) = (   0.0000000   0.1666667  -0.5000000), wk =   0.0555556
        k(    7) = (   0.0000000   0.1666667  -0.2500000), wk =   0.0555556
        k(    8) = (  -0.0000000   0.3333333   0.0000000), wk =   0.0555556
        k(    9) = (   0.0000000   0.3333333   0.2500000), wk =   0.0555556
        k(   10) = (   0.0000000   0.3333333  -0.5000000), wk =   0.0555556
        k(   11) = (  -0.0000000   0.3333333  -0.2500000), wk =   0.0555556
        k(   12) = (  -0.0000000  -0.5000000   0.0000000), wk =   0.0277778
        k(   13) = (  -0.0000000  -0.5000000   0.2500000), wk =   0.0555556
        k(   14) = (  -0.0000000  -0.5000000  -0.5000000), wk =   0.0277778
        k(   15) = (   0.1666667   0.1666667  -0.0000000), wk =   0.0277778
        k(   16) = (   0.1666667   0.1666667   0.2500000), wk =   0.0555556
        k(   17) = (   0.1666667   0.1666667  -0.5000000), wk =   0.0277778
        k(   18) = (   0.1666667   0.3333333   0.0000000), wk =   0.0555556
        k(   19) = (   0.1666667   0.3333333   0.2500000), wk =   0.0555556
        k(   20) = (   0.1666667   0.3333333  -0.5000000), wk =   0.0555556
        k(   21) = (   0.1666667   0.3333333  -0.2500000), wk =   0.0555556
        k(   22) = (   0.1666667  -0.5000000  -0.0000000), wk =   0.0555556
        k(   23) = (   0.1666667  -0.5000000   0.2500000), wk =   0.0555556
        k(   24) = (   0.1666667  -0.5000000  -0.5000000), wk =   0.0555556
        k(   25) = (   0.1666667  -0.5000000  -0.2500000), wk =   0.0555556
        k(   26) = (   0.1666667  -0.3333333   0.0000000), wk =   0.0555556
        k(   27) = (   0.1666667  -0.3333333   0.2500000), wk =   0.0555556
        k(   28) = (   0.1666667  -0.3333333  -0.5000000), wk =   0.0555556
        k(   29) = (   0.1666667  -0.3333333  -0.2500000), wk =   0.0555556
        k(   30) = (   0.1666667  -0.1666667  -0.0000000), wk =   0.0277778
        k(   31) = (   0.1666667  -0.1666667   0.2500000), wk =   0.0277778
        k(   32) = (   0.1666667  -0.1666667  -0.5000000), wk =   0.0277778
        k(   33) = (   0.1666667  -0.1666667  -0.2500000), wk =   0.0277778
        k(   34) = (   0.3333333   0.3333333  -0.0000000), wk =   0.0277778
        k(   35) = (   0.3333333   0.3333333   0.2500000), wk =   0.0555556
        k(   36) = (   0.3333333   0.3333333  -0.5000000), wk =   0.0277778
        k(   37) = (   0.3333333  -0.5000000   0.0000000), wk =   0.0555556
        k(   38) = (   0.3333333  -0.5000000   0.2500000), wk =   0.0555556
        k(   39) = (   0.3333333  -0.5000000  -0.5000000), wk =   0.0555556
        k(   40) = (   0.3333333  -0.5000000  -0.2500000), wk =   0.0555556
        k(   41) = (   0.3333333  -0.3333333  -0.0000000), wk =   0.0277778
        k(   42) = (   0.3333333  -0.3333333   0.2500000), wk =   0.0277778
        k(   43) = (   0.3333333  -0.3333333  -0.5000000), wk =   0.0277778
        k(   44) = (   0.3333333  -0.3333333  -0.2500000), wk =   0.0277778
        k(   45) = (  -0.5000000  -0.5000000   0.0000000), wk =   0.0138889
        k(   46) = (  -0.5000000  -0.5000000   0.2500000), wk =   0.0277778
        k(   47) = (  -0.5000000  -0.5000000  -0.5000000), wk =   0.0138889

     Dense  grid:   101923 G-vectors     FFT dimensions: (  60,  60, 108)

     Smooth grid:    35989 G-vectors     FFT dimensions: (  45,  45,  72)

     Dynamical RAM for                 wfc:       0.24 MB

     Dynamical RAM for     wfc (w. buffer):       1.68 MB

     Dynamical RAM for           str. fact:       0.29 MB

     Dynamical RAM for           local pot:       0.00 MB

     Dynamical RAM for          nlocal pot:       0.77 MB

     Dynamical RAM for                qrad:       4.03 MB

     Dynamical RAM for          rho,v,vnew:       0.87 MB

     Dynamical RAM for               rhoin:       0.29 MB

     Dynamical RAM for            rho*nmix:       1.56 MB

     Dynamical RAM for           G-vectors:       0.38 MB

     Dynamical RAM for          h,s,v(r/c):       0.04 MB

     Dynamical RAM for          <psi|beta>:       0.15 MB

     Dynamical RAM for                 psi:       0.48 MB

     Dynamical RAM for                hpsi:       0.48 MB

     Dynamical RAM for                spsi:       0.48 MB

     Dynamical RAM for      wfcinit/wfcrot:       0.93 MB

     Dynamical RAM for           addusdens:       2.39 MB

     Dynamical RAM for          addusforce:       2.44 MB

     Dynamical RAM for         addusstress:       2.48 MB

     Estimated static dynamical RAM per process >       9.66 MB

     Estimated max dynamical RAM per process >      13.70 MB

     Estimated total dynamical RAM >       1.54 GB

     Initial potential from superposition of free atoms

     starting charge   93.98055, renormalised to   94.00000
     Starting wfcs are   88 randomized atomic wfcs

     total cpu time spent up to now is        1.6 secs

     Self-consistent Calculation

     iteration #  1     ecut=    35.00 Ry     beta= 0.40
     Davidson diagonalization with overlap

---- Real-time Memory Report at c_bands before calling an iterative solver
           126 MiB given to the printing process from OS
             0 MiB allocation reported by mallinfo(arena+hblkhd)
        167304 MiB available memory on the node where the printing process lives
------------------
     ethr =  1.00E-02,  avg # of iterations =  2.1

     total cpu time spent up to now is        2.1 secs

     total energy              =    -849.62733136 Ry
     estimated scf accuracy    <       1.83941861 Ry

     iteration #  2     ecut=    35.00 Ry     beta= 0.40
     Davidson diagonalization with overlap

---- Real-time Memory Report at c_bands before calling an iterative solver
           130 MiB given to the printing process from OS
             0 MiB allocation reported by mallinfo(arena+hblkhd)
        166994 MiB available memory on the node where the printing process lives
------------------
     ethr =  1.96E-03,  avg # of iterations =  5.7

     total cpu time spent up to now is        2.8 secs

     total energy              =    -848.03974588 Ry
     estimated scf accuracy    <      31.25628382 Ry

     iteration #  3     ecut=    35.00 Ry     beta= 0.40
     Davidson diagonalization with overlap

---- Real-time Memory Report at c_bands before calling an iterative solver
           131 MiB given to the printing process from OS
             0 MiB allocation reported by mallinfo(arena+hblkhd)
        166926 MiB available memory on the node where the printing process lives
------------------
     ethr =  1.96E-03,  avg # of iterations =  5.2

     total cpu time spent up to now is        3.5 secs

     total energy              =    -850.48797376 Ry
     estimated scf accuracy    <       0.38553567 Ry

     iteration #  4     ecut=    35.00 Ry     beta= 0.40
     Davidson diagonalization with overlap

---- Real-time Memory Report at c_bands before calling an iterative solver
           132 MiB given to the printing process from OS
             0 MiB allocation reported by mallinfo(arena+hblkhd)
        166955 MiB available memory on the node where the printing process lives
------------------
     ethr =  4.10E-04,  avg # of iterations =  2.2

     total cpu time spent up to now is        4.0 secs

     total energy              =    -850.50679682 Ry
     estimated scf accuracy    <       0.09450668 Ry

     iteration #  5     ecut=    35.00 Ry     beta= 0.40
     Davidson diagonalization with overlap

---- Real-time Memory Report at c_bands before calling an iterative solver
           132 MiB given to the printing process from OS
             0 MiB allocation reported by mallinfo(arena+hblkhd)
        166998 MiB available memory on the node where the printing process lives
------------------
     ethr =  1.01E-04,  avg # of iterations =  4.0

     total cpu time spent up to now is        4.6 secs

     total energy              =    -850.50911803 Ry
     estimated scf accuracy    <       0.01259365 Ry

     iteration #  6     ecut=    35.00 Ry     beta= 0.40
     Davidson diagonalization with overlap

---- Real-time Memory Report at c_bands before calling an iterative solver
           133 MiB given to the printing process from OS
             0 MiB allocation reported by mallinfo(arena+hblkhd)
        167001 MiB available memory on the node where the printing process lives
------------------
     c_bands:  1 eigenvalues not converged
     ethr =  1.34E-05,  avg # of iterations =  9.6

     total cpu time spent up to now is        5.5 secs

     total energy              =    -850.51182707 Ry
     estimated scf accuracy    <       0.00182590 Ry

     iteration #  7     ecut=    35.00 Ry     beta= 0.40
     Davidson diagonalization with overlap

---- Real-time Memory Report at c_bands before calling an iterative solver
           135 MiB given to the printing process from OS
             0 MiB allocation reported by mallinfo(arena+hblkhd)
        167153 MiB available memory on the node where the printing process lives
------------------
     ethr =  1.94E-06,  avg # of iterations =  7.1

     total cpu time spent up to now is        6.4 secs

     total energy              =    -850.51213576 Ry
     estimated scf accuracy    <       0.00009688 Ry

     iteration #  8     ecut=    35.00 Ry     beta= 0.40
     Davidson diagonalization with overlap

---- Real-time Memory Report at c_bands before calling an iterative solver
           135 MiB given to the printing process from OS
             0 MiB allocation reported by mallinfo(arena+hblkhd)
        167142 MiB available memory on the node where the printing process lives
------------------
     ethr =  1.03E-07,  avg # of iterations =  4.3

     total cpu time spent up to now is        7.0 secs

     total energy              =    -850.51216329 Ry
     estimated scf accuracy    <       0.00000724 Ry

     iteration #  9     ecut=    35.00 Ry     beta= 0.40
     Davidson diagonalization with overlap

---- Real-time Memory Report at c_bands before calling an iterative solver
           136 MiB given to the printing process from OS
             0 MiB allocation reported by mallinfo(arena+hblkhd)
        167158 MiB available memory on the node where the printing process lives
------------------
     ethr =  7.71E-09,  avg # of iterations =  4.4

     total cpu time spent up to now is        7.7 secs

     total energy              =    -850.51216557 Ry
     estimated scf accuracy    <       0.00000287 Ry

     iteration # 10     ecut=    35.00 Ry     beta= 0.40
     Davidson diagonalization with overlap

---- Real-time Memory Report at c_bands before calling an iterative solver
           136 MiB given to the printing process from OS
             0 MiB allocation reported by mallinfo(arena+hblkhd)
        167135 MiB available memory on the node where the printing process lives
------------------
     ethr =  3.06E-09,  avg # of iterations =  2.2

     total cpu time spent up to now is        8.2 secs

     total energy              =    -850.51216605 Ry
     estimated scf accuracy    <       0.00000032 Ry

     iteration # 11     ecut=    35.00 Ry     beta= 0.40
     Davidson diagonalization with overlap

---- Real-time Memory Report at c_bands before calling an iterative solver
           136 MiB given to the printing process from OS
             0 MiB allocation reported by mallinfo(arena+hblkhd)
        167138 MiB available memory on the node where the printing process lives
------------------
     ethr =  3.40E-10,  avg # of iterations =  2.4

     total cpu time spent up to now is        8.7 secs

     total energy              =    -850.51216611 Ry
     estimated scf accuracy    <       0.00000001 Ry

     iteration # 12     ecut=    35.00 Ry     beta= 0.40
     Davidson diagonalization with overlap

---- Real-time Memory Report at c_bands before calling an iterative solver
           136 MiB given to the printing process from OS
             0 MiB allocation reported by mallinfo(arena+hblkhd)
        167129 MiB available memory on the node where the printing process lives
------------------
     ethr =  1.21E-11,  avg # of iterations =  6.0

     total cpu time spent up to now is        9.6 secs

     total energy              =    -850.51216612 Ry
     estimated scf accuracy    <          6.9E-09 Ry

     iteration # 13     ecut=    35.00 Ry     beta= 0.40
     Davidson diagonalization with overlap

---- Real-time Memory Report at c_bands before calling an iterative solver
           138 MiB given to the printing process from OS
             0 MiB allocation reported by mallinfo(arena+hblkhd)
        167114 MiB available memory on the node where the printing process lives
------------------
     ethr =  7.33E-12,  avg # of iterations =  1.9

     total cpu time spent up to now is       10.0 secs

     End of self-consistent calculation

          k = 0.0000 0.0000 0.0000 (  4467 PWs)   bands (ev):

   -65.5573 -65.5513 -33.5160 -33.5108 -33.4882 -33.4721 -33.4498 -33.4395
   -29.1508 -29.1121 -28.9817 -28.9643  -9.4247  -9.2681  -9.2444  -9.2337
    -9.2224  -9.2058  -9.1975  -9.0702  -9.0385  -9.0347  -8.9887  -8.9731
     2.9399   4.2570   5.3831   6.0481   7.7767   8.4060   8.8389   9.0687
     9.3280   9.6866  10.0192  10.0270  10.1011  10.5197  10.7365  11.1236
    11.3226  11.3642  11.6549  11.7850  12.0911  12.1194  12.7566  12.9647
    13.1206  13.1874  13.4945  15.3062  15.3830  15.7157  16.0359  16.1107

     occupation numbers 
     1.0000   1.0000   1.0000   1.0000   1.0000   1.0000   1.0000   1.0000
     1.0000   1.0000   1.0000   1.0000   1.0000   1.0000   1.0000   1.0000
     1.0000   1.0000   1.0000   1.0000   1.0000   1.0000   1.0000   1.0000
     1.0000   1.0000   1.0000   1.0000   1.0000   1.0000   1.0000   1.0000
     1.0000   1.0000   1.0000   1.0000   1.0000   1.0000   1.0000   1.0000
     1.0000   1.0000   1.0000   1.0000   1.0000   1.0000   1.0588   0.1765
     0.0032   0.0003   0.0000   0.0000   0.0000   0.0000   0.0000   0.0000

          k = 0.0003 0.0000 0.1614 (  4517 PWs)   bands (ev):

   -65.5573 -65.5513 -33.5160 -33.5108 -33.4882 -33.4721 -33.4498 -33.4395
   -29.1507 -29.1123 -28.9822 -28.9639  -9.4227  -9.2979  -9.2574  -9.2232
    -9.2130  -9.1970  -9.1632  -9.0679  -9.0518  -9.0366  -8.9927  -8.9786
     3.0324   4.0409   5.4600   6.1481   7.7884   8.3440   8.8391   9.0694
     9.2664   9.5557  10.0068  10.1102  10.4382  10.5451  10.6396  10.9839
    11.1846  11.3267  11.6276  11.9090  12.1934  12.2265  12.6581  12.8786
    13.1605  13.3583  13.3899  15.1735  15.3389  15.3741  16.1079  16.1955

     occupation numbers 
     1.0000   1.0000   1.0000   1.0000   1.0000   1.0000   1.0000   1.0000
     1.0000   1.0000   1.0000   1.0000   1.0000   1.0000   1.0000   1.0000
     1.0000   1.0000   1.0000   1.0000   1.0000   1.0000   1.0000   1.0000
     1.0000   1.0000   1.0000   1.0000   1.0000   1.0000   1.0000   1.0000
     1.0000   1.0000   1.0000   1.0000   1.0000   1.0000   1.0000   1.0000
     1.0000   1.0000   1.0000   1.0000   1.0000   1.0000   1.0545   0.5706
     0.0008   0.0000   0.0000   0.0000   0.0000   0.0000   0.0000   0.0000

          k =-0.0006-0.0000-0.3228 (  4518 PWs)   bands (ev):

   -65.5573 -65.5513 -33.5160 -33.5108 -33.4882 -33.4721 -33.4498 -33.4395
   -29.1505 -29.1125 -28.9827 -28.9634  -9.4201  -9.3188  -9.2577  -9.2239
    -9.2065  -9.1966  -9.1140  -9.0754  -9.0653  -9.0389  -9.0096  -8.9757
     3.1647   3.8095   5.5099   6.2512   7.8343   8.2446   8.8396   9.0691
     9.0936   9.7354   9.9943  10.2654  10.2877  10.5497  10.8240  10.9029
    11.1293  11.2829  11.3502  12.2297  12.2888  12.3373  12.4706  12.8042
    13.0630  13.4439  13.5470  15.0630  15.0782  15.3084  15.9593  16.1503

     occupation numbers 
     1.0000   1.0000   1.0000   1.0000   1.0000   1.0000   1.0000   1.0000
     1.0000   1.0000   1.0000   1.0000   1.0000   1.0000   1.0000   1.0000
     1.0000   1.0000   1.0000   1.0000   1.0000   1.0000   1.0000   1.0000
     1.0000   1.0000   1.0000   1.0000   1.0000   1.0000   1.0000   1.0000
     1.0000   1.0000   1.0000   1.0000   1.0000   1.0000   1.0000   1.0000
     1.0000   1.0000   1.0000   1.0000   1.0000   1.0000   1.0005   0.9383
     0.0190   0.0000   0.0000   0.0000   0.0000   0.0000   0.0000   0.0000

          k =-0.0898 0.2254-0.0491 (  4501 PWs)   bands (ev):

   -65.5568 -65.5516 -33.5170 -33.5135 -33.4860 -33.4730 -33.4487 -33.4396
   -29.1478 -29.1125 -28.9810 -28.9639  -9.4218  -9.2956  -9.2694  -9.2426
    -9.2218  -9.2078  -9.1766  -9.0906  -9.0583  -9.0380  -8.9855  -8.9701
     3.2118   4.2922   5.5065   6.1057   7.9650   8.3972   8.5792   9.0457
     9.3815   9.6439   9.8476   9.9151  10.1844  10.4112  10.6436  10.9298
    11.1720  11.3022  11.4966  11.8465  12.1258  12.2152  12.8795  13.0073
    13.1106  13.1649  13.7908  14.8403  15.4321  15.5714  15.9115  16.1033

     occupation numbers 
     1.0000   1.0000   1.0000   1.0000   1.0000   1.0000   1.0000   1.0000
     1.0000   1.0000   1.0000   1.0000   1.0000   1.0000   1.0000   1.0000
     1.0000   1.0000   1.0000   1.0000   1.0000   1.0000   1.0000   1.0000
     1.0000   1.0000   1.0000   1.0000   1.0000   1.0000   1.0000   1.0000
     1.0000   1.0000   1.0000   1.0000   1.0000   1.0000   1.0000   1.0000
     1.0000   1.0000   1.0000   1.0000   1.0000   1.0000   0.5656   0.0757
     0.0045   0.0007   0.0000   0.0000   0.0000   0.0000   0.0000   0.0000

          k =-0.0895 0.2254 0.1123 (  4511 PWs)   bands (ev):

   -65.5568 -65.5516 -33.5170 -33.5135 -33.4860 -33.4730 -33.4487 -33.4396
   -29.1478 -29.1126 -28.9813 -28.9636  -9.4156  -9.3231  -9.2769  -9.2467
    -9.2088  -9.1989  -9.1486  -9.0930  -9.0585  -9.0339  -8.9919  -8.9825
     3.2445   4.2230   5.5052   6.1739   7.9792   8.2564   8.6760   9.0970
     9.4635   9.4855   9.8064   9.9839  10.2207  10.3527  10.5832  10.9176
    11.2055  11.3023  11.6212  11.7342  11.9811  12.3653  12.8187  13.0961
    13.1246  13.2742  13.8069  14.8940  15.1329  15.5225  15.9857  16.3093

     occupation numbers 
     1.0000   1.0000   1.0000   1.0000   1.0000   1.0000   1.0000   1.0000
     1.0000   1.0000   1.0000   1.0000   1.0000   1.0000   1.0000   1.0000
     1.0000   1.0000   1.0000   1.0000   1.0000   1.0000   1.0000   1.0000
     1.0000   1.0000   1.0000   1.0000   1.0000   1.0000   1.0000   1.0000
     1.0000   1.0000   1.0000   1.0000   1.0000   1.0000   1.0000   1.0000
     1.0000   1.0000   1.0000   1.0000   1.0000   1.0000   0.8801   0.0072
     0.0028   0.0000   0.0000   0.0000   0.0000   0.0000   0.0000   0.0000

          k =-0.0904 0.2254-0.3720 (  4505 PWs)   bands (ev):

   -65.5568 -65.5516 -33.5170 -33.5135 -33.4860 -33.4730 -33.4487 -33.4396
   -29.1476 -29.1127 -28.9819 -28.9630  -9.4167  -9.3295  -9.2785  -9.2492
    -9.2062  -9.1887  -9.1282  -9.0818  -9.0638  -9.0568  -9.0035  -8.9760
     3.3758   4.0014   5.5601   6.2317   7.9289   8.2494   8.8126   9.1314
     9.1831   9.6763   9.8102   9.9278  10.3433  10.3729  10.6026  10.8597
    10.9135  11.3344  11.5879  11.9682  12.0158  12.4007  12.7288  12.8429
    13.1414  13.6067  14.1652  14.4711  14.7938  15.2396  16.0912  16.2421

     occupation numbers 
     1.0000   1.0000   1.0000   1.0000   1.0000   1.0000   1.0000   1.0000
     1.0000   1.0000   1.0000   1.0000   1.0000   1.0000   1.0000   1.0000
     1.0000   1.0000   1.0000   1.0000   1.0000   1.0000   1.0000   1.0000
     1.0000   1.0000   1.0000   1.0000   1.0000   1.0000   1.0000   1.0000
     1.0000   1.0000   1.0000   1.0000   1.0000   1.0000   1.0000   1.0000
     1.0000   1.0000   1.0000   1.0000   1.0000   1.0000   1.0817   0.7647
     0.0016   0.0000   0.0000   0.0000   0.0000   0.0000   0.0000   0.0000

          k =-0.0901 0.2254-0.2106 (  4498 PWs)   bands (ev):

   -65.5568 -65.5516 -33.5170 -33.5135 -33.4860 -33.4730 -33.4487 -33.4396
   -29.1476 -29.1127 -28.9816 -28.9633  -9.4231  -9.2987  -9.2820  -9.2511
    -9.2085  -9.1836  -9.1701  -9.0841  -9.0638  -9.0550  -8.9859  -8.9728
     3.3255   4.0821   5.5670   6.1640   7.9158   8.3538   8.7179   9.0698
     9.3091   9.6197   9.8195   9.8898  10.3697  10.5141  10.5595  10.7582
    11.0501  11.3205  11.6461  11.8817  11.9322  12.4117  12.7765  12.8567
    13.0932  13.5634  13.8831  14.7089  14.9085  15.3711  15.8687  16.1690

     occupation numbers 
     1.0000   1.0000   1.0000   1.0000   1.0000   1.0000   1.0000   1.0000
     1.0000   1.0000   1.0000   1.0000   1.0000   1.0000   1.0000   1.0000
     1.0000   1.0000   1.0000   1.0000   1.0000   1.0000   1.0000   1.0000
     1.0000   1.0000   1.0000   1.0000   1.0000   1.0000   1.0000   1.0000
     1.0000   1.0000   1.0000   1.0000   1.0000   1.0000   1.0000   1.0000
     1.0000   1.0000   1.0000   1.0000   1.0000   1.0000   1.0220   0.6918
     0.0078   0.0000   0.0000   0.0000   0.0000   0.0000   0.0000   0.0000

          k =-0.1796 0.4508-0.0983 (  4495 PWs)   bands (ev):

   -65.5557 -65.5527 -33.5191 -33.5180 -33.4818 -33.4751 -33.4458 -33.4404
   -29.1412 -29.1140 -28.9796 -28.9628  -9.4179  -9.3482  -9.3161  -9.2496
    -9.2387  -9.2159  -9.1571  -9.0983  -9.0818  -9.0445  -8.9961  -8.9642
     3.8254   4.3844   5.6177   6.2421   8.1559   8.4007   8.5618   8.9404
     9.3586   9.5439   9.7230  10.0514  10.1718  10.2801  10.5713  10.7238
    10.9090  10.9873  11.4835  11.5411  11.8991  11.9827  12.6215  12.9046
    13.2635  13.4836  14.0311  14.7895  15.1251  15.6215  15.8154  16.3057

     occupation numbers 
     1.0000   1.0000   1.0000   1.0000   1.0000   1.0000   1.0000   1.0000
     1.0000   1.0000   1.0000   1.0000   1.0000   1.0000   1.0000   1.0000
     1.0000   1.0000   1.0000   1.0000   1.0000   1.0000   1.0000   1.0000
     1.0000   1.0000   1.0000   1.0000   1.0000   1.0000   1.0000   1.0000
     1.0000   1.0000   1.0000   1.0000   1.0000   1.0000   1.0000   1.0000
     1.0000   1.0000   1.0000   1.0000   1.0000   1.0000   1.0310   0.4307
     0.0000   0.0000   0.0000   0.0000   0.0000   0.0000   0.0000   0.0000

          k =-0.1793 0.4508 0.0631 (  4494 PWs)   bands (ev):

   -65.5557 -65.5527 -33.5191 -33.5180 -33.4818 -33.4751 -33.4458 -33.4404
   -29.1412 -29.1140 -28.9797 -28.9627  -9.4117  -9.3643  -9.3193  -9.2783
    -9.2080  -9.1998  -9.1381  -9.1231  -9.0746  -9.0292  -8.9987  -8.9832
     3.8106   4.4068   5.5955   6.2803   8.0069   8.3676   8.7075   9.1115
     9.3135   9.4121   9.9361   9.9719  10.0493  10.3015  10.3997  10.6130
    11.0364  11.1922  11.4286  11.6136  11.7248  12.1055  12.7009  12.8200
    13.2264  13.5376  14.1596  14.3456  15.2841  15.7692  15.9613  16.2847

     occupation numbers 
     1.0000   1.0000   1.0000   1.0000   1.0000   1.0000   1.0000   1.0000
     1.0000   1.0000   1.0000   1.0000   1.0000   1.0000   1.0000   1.0000
     1.0000   1.0000   1.0000   1.0000   1.0000   1.0000   1.0000   1.0000
     1.0000   1.0000   1.0000   1.0000   1.0000   1.0000   1.0000   1.0000
     1.0000   1.0000   1.0000   1.0000   1.0000   1.0000   1.0000   1.0000
     1.0000   1.0000   1.0000   1.0000   1.0000   1.0000   1.0799   0.8743
     0.0001   0.0000   0.0000   0.0000   0.0000   0.0000   0.0000   0.0000

          k =-0.1801 0.4508-0.4211 (  4491 PWs)   bands (ev):

   -65.5557 -65.5527 -33.5191 -33.5180 -33.4818 -33.4751 -33.4458 -33.4404
   -29.1411 -29.1140 -28.9802 -28.9622  -9.4117  -9.3681  -9.3190  -9.2886
    -9.2054  -9.1781  -9.1441  -9.1123  -9.0703  -9.0433  -8.9986  -8.9891
     3.8578   4.3607   5.5862   6.2462   8.0884   8.3731   8.7181   9.2063
     9.3803   9.4097   9.7120   9.8054  10.1298  10.2017  10.4757  10.7908
    10.9999  11.0980  11.3843  11.6438  11.6771  12.2193  12.6564  12.8159
    13.3015  13.7070  14.0518  14.4757  15.1764  15.5011  15.9620  16.3814

     occupation numbers 
     1.0000   1.0000   1.0000   1.0000   1.0000   1.0000   1.0000   1.0000
     1.0000   1.0000   1.0000   1.0000   1.0000   1.0000   1.0000   1.0000
     1.0000   1.0000   1.0000   1.0000   1.0000   1.0000   1.0000   1.0000
     1.0000   1.0000   1.0000   1.0000   1.0000   1.0000   1.0000   1.0000
     1.0000   1.0000   1.0000   1.0000   1.0000   1.0000   1.0000   1.0000
     1.0000   1.0000   1.0000   1.0000   1.0000   1.0000   1.0534   0.8921
     0.0000   0.0000   0.0000   0.0000   0.0000   0.0000   0.0000   0.0000

          k =-0.1798 0.4508-0.2597 (  4494 PWs)   bands (ev):

   -65.5557 -65.5527 -33.5191 -33.5180 -33.4818 -33.4751 -33.4458 -33.4404
   -29.1411 -29.1140 -28.9801 -28.9623  -9.4185  -9.3503  -9.3157  -9.2809
    -9.2190  -9.1814  -9.1686  -9.0935  -9.0706  -9.0651  -8.9943  -8.9707
     3.8761   4.3349   5.6075   6.2111   8.2455   8.3670   8.6546   8.9668
     9.4312   9.4488   9.6643   9.8840  10.1508  10.2925  10.5852  10.7323
    10.9817  11.0618  11.3197  11.5814  11.7930  12.1372  12.5668  12.8927
    13.3498  13.6291  14.2040  14.5075  15.2329  15.3678  15.8155  16.1813

     occupation numbers 
     1.0000   1.0000   1.0000   1.0000   1.0000   1.0000   1.0000   1.0000
     1.0000   1.0000   1.0000   1.0000   1.0000   1.0000   1.0000   1.0000
     1.0000   1.0000   1.0000   1.0000   1.0000   1.0000   1.0000   1.0000
     1.0000   1.0000   1.0000   1.0000   1.0000   1.0000   1.0000   1.0000
     1.0000   1.0000   1.0000   1.0000   1.0000   1.0000   1.0000   1.0000
     1.0000   1.0000   1.0000   1.0000   1.0000   1.0000   1.0095   0.4937
     0.0000   0.0000   0.0000   0.0000   0.0000   0.0000   0.0000   0.0000

          k = 0.2693-0.6762 0.1474 (  4480 PWs)   bands (ev):

   -65.5542 -65.5542 -33.5202 -33.5199 -33.4782 -33.4778 -33.4428 -33.4426
   -29.1373 -29.1152 -28.9788 -28.9623  -9.4149  -9.3807  -9.3340  -9.2619
    -9.2393  -9.2305  -9.1494  -9.1012  -9.0721  -9.0286  -9.0279  -8.9613
     4.1394   4.5069   5.5618   6.3300   8.1899   8.2935   8.6134   9.2245
     9.4094   9.6001   9.8356   9.9458  10.0919  10.2703  10.2764  10.7614
    10.7615  11.0547  11.1398  11.2980  11.5840  12.0969  12.3479  12.9132
    13.1238  13.8842  13.8951  14.5525  15.3325  15.7662  16.1585  16.5530

     occupation numbers 
     1.0000   1.0000   1.0000   1.0000   1.0000   1.0000   1.0000   1.0000
     1.0000   1.0000   1.0000   1.0000   1.0000   1.0000   1.0000   1.0000
     1.0000   1.0000   1.0000   1.0000   1.0000   1.0000   1.0000   1.0000
     1.0000   1.0000   1.0000   1.0000   1.0000   1.0000   1.0000   1.0000
     1.0000   1.0000   1.0000   1.0000   1.0000   1.0000   1.0000   1.0000
     1.0000   1.0000   1.0000   1.0000   1.0000   1.0000   1.0000   0.3869
     0.0029   0.0000   0.0000   0.0000   0.0000   0.0000   0.0000   0.0000

          k = 0.2696-0.6762 0.3089 (  4492 PWs)   bands (ev):

   -65.5542 -65.5542 -33.5202 -33.5199 -33.4782 -33.4778 -33.4428 -33.4426
   -29.1373 -29.1153 -28.9791 -28.9620  -9.4139  -9.3859  -9.3380  -9.2888
    -9.2255  -9.1941  -9.1470  -9.1170  -9.0639  -9.0332  -9.0211  -8.9736
     4.1386   4.5078   5.5718   6.3252   8.0914   8.2804   8.7475   9.2457
     9.4449   9.6016   9.8246   9.9119  10.0749  10.0909  10.3148  10.8302
    10.8802  11.0753  11.1176  11.2184  11.6208  12.0039  12.4273  12.8341
    13.2349  13.6068  14.2416  14.5202  15.4525  15.7548  16.1653  16.3758

     occupation numbers 
     1.0000   1.0000   1.0000   1.0000   1.0000   1.0000   1.0000   1.0000
     1.0000   1.0000   1.0000   1.0000   1.0000   1.0000   1.0000   1.0000
     1.0000   1.0000   1.0000   1.0000   1.0000   1.0000   1.0000   1.0000
     1.0000   1.0000   1.0000   1.0000   1.0000   1.0000   1.0000   1.0000
     1.0000   1.0000   1.0000   1.0000   1.0000   1.0000   1.0000   1.0000
     1.0000   1.0000   1.0000   1.0000   1.0000   1.0000   1.0001   0.8091
     0.0000   0.0000   0.0000   0.0000   0.0000   0.0000   0.0000   0.0000

          k = 0.2688-0.6762-0.1754 (  4500 PWs)   bands (ev):

   -65.5542 -65.5542 -33.5202 -33.5199 -33.4782 -33.4778 -33.4428 -33.4426
   -29.1373 -29.1153 -28.9793 -28.9618  -9.4097  -9.3953  -9.3408  -9.3018
    -9.2060  -9.1761  -9.1411  -9.1348  -9.0545  -9.0356  -9.0157  -8.9905
     4.1378   4.5089   5.5814   6.3217   8.0019   8.2742   9.0339   9.0569
     9.4655   9.6997   9.8219   9.8658   9.8821  10.1197  10.3328  10.8835
    10.9286  11.0391  11.0845  11.2850  11.6411  11.8987  12.6210  12.6398
    13.2784  13.6272  14.2862  14.4699  15.7401  15.9233  16.0829  16.2445

     occupation numbers 
     1.0000   1.0000   1.0000   1.0000   1.0000   1.0000   1.0000   1.0000
     1.0000   1.0000   1.0000   1.0000   1.0000   1.0000   1.0000   1.0000
     1.0000   1.0000   1.0000   1.0000   1.0000   1.0000   1.0000   1.0000
     1.0000   1.0000   1.0000   1.0000   1.0000   1.0000   1.0000   1.0000
     1.0000   1.0000   1.0000   1.0000   1.0000   1.0000   1.0000   1.0000
     1.0000   1.0000   1.0000   1.0000   1.0000   1.0000   1.0308   1.0421
     0.0000   0.0000   0.0000   0.0000   0.0000   0.0000   0.0000   0.0000

          k = 0.0000 0.4508-0.0000 (  4495 PWs)   bands (ev):

   -65.5557 -65.5527 -33.5190 -33.5181 -33.4817 -33.4751 -33.4459 -33.4404
   -29.1430 -29.1126 -28.9796 -28.9627  -9.4199  -9.3323  -9.3169  -9.2391
    -9.2180  -9.2089  -9.1898  -9.1268  -9.0786  -9.0347  -8.9955  -8.9645
     3.7249   4.3817   5.7404   6.2543   7.9556   8.3756   8.5552   9.0855
     9.2398   9.4687   9.9460  10.0094  10.1764  10.4256  10.5141  10.6276
    10.8702  11.1179  11.4433  11.7092  11.8666  12.2067  12.5791  12.8098
    13.2975  13.3170  14.3161  14.3232  15.2220  15.4994  15.9788  16.0605

     occupation numbers 
     1.0000   1.0000   1.0000   1.0000   1.0000   1.0000   1.0000   1.0000
     1.0000   1.0000   1.0000   1.0000   1.0000   1.0000   1.0000   1.0000
     1.0000   1.0000   1.0000   1.0000   1.0000   1.0000   1.0000   1.0000
     1.0000   1.0000   1.0000   1.0000   1.0000   1.0000   1.0000   1.0000
     1.0000   1.0000   1.0000   1.0000   1.0000   1.0000   1.0000   1.0000
     1.0000   1.0000   1.0000   1.0000   1.0000   1.0000   1.0128   0.9168
     0.0000   0.0000   0.0000   0.0000   0.0000   0.0000   0.0000   0.0000

          k = 0.0003 0.4508 0.1614 (  4493 PWs)   bands (ev):

   -65.5557 -65.5527 -33.5190 -33.5181 -33.4817 -33.4751 -33.4459 -33.4404
   -29.1429 -29.1127 -28.9800 -28.9623  -9.4160  -9.3372  -9.3236  -9.2581
    -9.2176  -9.2047  -9.1608  -9.1148  -9.0776  -9.0452  -8.9927  -8.9768
     3.7627   4.3382   5.7516   6.2165   8.0453   8.2579   8.7012   9.0121
     9.3917   9.4745   9.7210  10.0377  10.1252  10.2640  10.5986  10.7120
    11.0009  11.0650  11.4241  11.7511  11.8594  12.1066  12.6283  12.7737
    13.3489  13.5058  14.0167  14.5191  15.0872  15.6624  16.0038  16.1808

     occupation numbers 
     1.0000   1.0000   1.0000   1.0000   1.0000   1.0000   1.0000   1.0000
     1.0000   1.0000   1.0000   1.0000   1.0000   1.0000   1.0000   1.0000
     1.0000   1.0000   1.0000   1.0000   1.0000   1.0000   1.0000   1.0000
     1.0000   1.0000   1.0000   1.0000   1.0000   1.0000   1.0000   1.0000
     1.0000   1.0000   1.0000   1.0000   1.0000   1.0000   1.0000   1.0000
     1.0000   1.0000   1.0000   1.0000   1.0000   1.0000   1.0350   1.0284
     0.0000   0.0000   0.0000   0.0000   0.0000   0.0000   0.0000   0.0000

          k =-0.0006 0.4508-0.3228 (  4488 PWs)   bands (ev):

   -65.5557 -65.5527 -33.5190 -33.5181 -33.4817 -33.4751 -33.4459 -33.4404
   -29.1428 -29.1127 -28.9804 -28.9619  -9.4113  -9.3480  -9.3250  -9.2630
    -9.2251  -9.2029  -9.1367  -9.0942  -9.0716  -9.0640  -8.9987  -8.9849
     3.8070   4.2883   5.7629   6.1803   8.1386   8.1943   8.7994   8.9888
     9.4236   9.5706   9.6037   9.8531  10.0858  10.2770  10.6093  10.7898
    11.0137  11.1012  11.3899  11.7055  12.0192  12.0342  12.5749  12.7465
    13.4622  13.5224  14.0657  14.4685  15.0636  15.6458  15.8925  16.1440

     occupation numbers 
     1.0000   1.0000   1.0000   1.0000   1.0000   1.0000   1.0000   1.0000
     1.0000   1.0000   1.0000   1.0000   1.0000   1.0000   1.0000   1.0000
     1.0000   1.0000   1.0000   1.0000   1.0000   1.0000   1.0000   1.0000
     1.0000   1.0000   1.0000   1.0000   1.0000   1.0000   1.0000   1.0000
     1.0000   1.0000   1.0000   1.0000   1.0000   1.0000   1.0000   1.0000
     1.0000   1.0000   1.0000   1.0000   1.0000   1.0000   1.0116   1.0707
     0.0000   0.0000   0.0000   0.0000   0.0000   0.0000   0.0000   0.0000

          k =-0.0898 0.6762-0.0491 (  4502 PWs)   bands (ev):

   -65.5542 -65.5542 -33.5202 -33.5200 -33.4782 -33.4778 -33.4428 -33.4426
   -29.1373 -29.1152 -28.9788 -28.9623  -9.4277  -9.3667  -9.3400  -9.2501
    -9.2395  -9.2199  -9.1559  -9.1252  -9.0661  -9.0304  -9.0193  -8.9611
     4.1311   4.5046   5.5949   6.3434   7.9485   8.4871   8.6222   9.2665
     9.3790   9.5665   9.8094  10.0729  10.0923  10.1805  10.3422  10.5222
    10.8197  11.0450  11.1228  11.2708  11.7822  12.0418  12.4625  12.9227
    13.2389  13.6484  14.1313  14.8148  15.1167  15.3858  16.0865  16.2317

     occupation numbers 
     1.0000   1.0000   1.0000   1.0000   1.0000   1.0000   1.0000   1.0000
     1.0000   1.0000   1.0000   1.0000   1.0000   1.0000   1.0000   1.0000
     1.0000   1.0000   1.0000   1.0000   1.0000   1.0000   1.0000   1.0000
     1.0000   1.0000   1.0000   1.0000   1.0000   1.0000   1.0000   1.0000
     1.0000   1.0000   1.0000   1.0000   1.0000   1.0000   1.0000   1.0000
     1.0000   1.0000   1.0000   1.0000   1.0000   1.0000   1.0004   0.3415
     0.0000   0.0000   0.0000   0.0000   0.0000   0.0000   0.0000   0.0000

          k =-0.0895 0.6762 0.1123 (  4494 PWs)   bands (ev):

   -65.5542 -65.5542 -33.5202 -33.5200 -33.4782 -33.4778 -33.4428 -33.4426
   -29.1373 -29.1153 -28.9791 -28.9620  -9.4237  -9.3767  -9.3463  -9.2699
    -9.2139  -9.2065  -9.1490  -9.1321  -9.0590  -9.0354  -9.0157  -8.9738
     4.1312   4.5058   5.6009   6.3353   7.9301   8.3819   8.8551   9.1356
     9.4627   9.5519   9.8361   9.9709  10.0468  10.1268  10.2987  10.6891
    10.8228  11.0036  11.1565  11.3292  11.7721  11.9912  12.5702  12.7803
    13.2634  13.6505  14.1874  14.7182  15.3223  15.5061  16.0601  16.1276

     occupation numbers 
     1.0000   1.0000   1.0000   1.0000   1.0000   1.0000   1.0000   1.0000
     1.0000   1.0000   1.0000   1.0000   1.0000   1.0000   1.0000   1.0000
     1.0000   1.0000   1.0000   1.0000   1.0000   1.0000   1.0000   1.0000
     1.0000   1.0000   1.0000   1.0000   1.0000   1.0000   1.0000   1.0000
     1.0000   1.0000   1.0000   1.0000   1.0000   1.0000   1.0000   1.0000
     1.0000   1.0000   1.0000   1.0000   1.0000   1.0000   1.0104   1.0129
     0.0000   0.0000   0.0000   0.0000   0.0000   0.0000   0.0000   0.0000

          k =-0.0904 0.6762-0.3720 (  4497 PWs)   bands (ev):

   -65.5542 -65.5542 -33.5202 -33.5200 -33.4782 -33.4778 -33.4428 -33.4426
   -29.1373 -29.1153 -28.9793 -28.9618  -9.4174  -9.3797  -9.3548  -9.2774
    -9.2358  -9.1854  -9.1359  -9.1122  -9.0574  -9.0413  -9.0139  -8.9908
     4.1339   4.5074   5.5962   6.3167   8.0213   8.3397   8.8755   9.1246
     9.3712   9.6066   9.8627   9.8905   9.9741  10.0677  10.3388  10.7608
    10.9401  11.0839  11.1548  11.2136  11.8378  12.0013  12.5269  12.7584
    13.2620  13.6116  14.3261  14.4880  15.6071  15.6511  16.1062  16.1532

     occupation numbers 
     1.0000   1.0000   1.0000   1.0000   1.0000   1.0000   1.0000   1.0000
     1.0000   1.0000   1.0000   1.0000   1.0000   1.0000   1.0000   1.0000
     1.0000   1.0000   1.0000   1.0000   1.0000   1.0000   1.0000   1.0000
     1.0000   1.0000   1.0000   1.0000   1.0000   1.0000   1.0000   1.0000
     1.0000   1.0000   1.0000   1.0000   1.0000   1.0000   1.0000   1.0000
     1.0000   1.0000   1.0000   1.0000   1.0000   1.0000   1.0032   1.0564
     0.0000   0.0000   0.0000   0.0000   0.0000   0.0000   0.0000   0.0000

          k =-0.0901 0.6762-0.2106 (  4498 PWs)   bands (ev):

   -65.5542 -65.5542 -33.5202 -33.5200 -33.4782 -33.4778 -33.4428 -33.4426
   -29.1373 -29.1153 -28.9791 -28.9620  -9.4228  -9.3636  -9.3538  -9.2735
    -9.2412  -9.1966  -9.1494  -9.1056  -9.0649  -9.0388  -9.0184  -8.9733
     4.1338   4.5062   5.5898   6.3256   8.0249   8.4518   8.6619   9.1725
     9.4327   9.5015   9.8640  10.0316  10.0366  10.0839  10.3192  10.6616
    10.9526  11.0425  11.1054  11.2510  11.8223  12.0586  12.4640  12.8439
    13.2028  13.7007  14.1410  14.6381  15.2023  15.8386  16.0159  16.2208

     occupation numbers 
     1.0000   1.0000   1.0000   1.0000   1.0000   1.0000   1.0000   1.0000
     1.0000   1.0000   1.0000   1.0000   1.0000   1.0000   1.0000   1.0000
     1.0000   1.0000   1.0000   1.0000   1.0000   1.0000   1.0000   1.0000
     1.0000   1.0000   1.0000   1.0000   1.0000   1.0000   1.0000   1.0000
     1.0000   1.0000   1.0000   1.0000   1.0000   1.0000   1.0000   1.0000
     1.0000   1.0000   1.0000   1.0000   1.0000   1.0000   1.0004   0.7593
     0.0001   0.0000   0.0000   0.0000   0.0000   0.0000   0.0000   0.0000

          k = 0.3591-0.4508 0.1966 (  4511 PWs)   bands (ev):

   -65.5557 -65.5527 -33.5192 -33.5179 -33.4821 -33.4750 -33.4458 -33.4405
   -29.1368 -29.1174 -28.9796 -28.9631  -9.4257  -9.3598  -9.3307  -9.2580
    -9.2443  -9.2095  -9.1330  -9.0968  -9.0674  -9.0463  -9.0006  -8.9628
     4.0415   4.4166   5.3402   6.2846   8.2844   8.5864   8.6424   8.9310
     9.4055   9.4403   9.7053   9.9234  10.1189  10.2906  10.3221  10.4829
    10.8911  10.9375  11.2937  11.6051  11.8627  12.0375  12.8556  13.0710
    13.2787  13.7553  14.2165  14.7294  15.1607  15.5746  15.7001  15.9681

     occupation numbers 
     1.0000   1.0000   1.0000   1.0000   1.0000   1.0000   1.0000   1.0000
     1.0000   1.0000   1.0000   1.0000   1.0000   1.0000   1.0000   1.0000
     1.0000   1.0000   1.0000   1.0000   1.0000   1.0000   1.0000   1.0000
     1.0000   1.0000   1.0000   1.0000   1.0000   1.0000   1.0000   1.0000
     1.0000   1.0000   1.0000   1.0000   1.0000   1.0000   1.0000   1.0000
     1.0000   1.0000   1.0000   1.0000   1.0000   1.0000   0.6975   0.0152
     0.0000   0.0000   0.0000   0.0000   0.0000   0.0000   0.0000   0.0000

          k = 0.3594-0.4508 0.3580 (  4503 PWs)   bands (ev):

   -65.5557 -65.5527 -33.5192 -33.5179 -33.4821 -33.4750 -33.4458 -33.4405
   -29.1368 -29.1174 -28.9799 -28.9628  -9.4265  -9.3719  -9.3332  -9.2711
    -9.2062  -9.1909  -9.1426  -9.1164  -9.0686  -9.0363  -9.0025  -8.9688
     4.0407   4.4360   5.3098   6.2910   8.2431   8.6062   8.6569   9.0856
     9.3098   9.6238   9.6885   9.7249  10.0166  10.0953  10.3824  10.6471
    10.7940  11.0977  11.3277  11.6000  11.8917  11.9489  12.9035  13.0050
    13.3418  13.6690  14.5484  14.5864  15.0426  15.4329  15.6110  16.0579

     occupation numbers 
     1.0000   1.0000   1.0000   1.0000   1.0000   1.0000   1.0000   1.0000
     1.0000   1.0000   1.0000   1.0000   1.0000   1.0000   1.0000   1.0000
     1.0000   1.0000   1.0000   1.0000   1.0000   1.0000   1.0000   1.0000
     1.0000   1.0000   1.0000   1.0000   1.0000   1.0000   1.0000   1.0000
     1.0000   1.0000   1.0000   1.0000   1.0000   1.0000   1.0000   1.0000
     1.0000   1.0000   1.0000   1.0000   1.0000   1.0000   0.4363   0.0797
     0.0000   0.0000   0.0000   0.0000   0.0000   0.0000   0.0000   0.0000

          k = 0.3585-0.4508-0.1263 (  4510 PWs)   bands (ev):

   -65.5557 -65.5527 -33.5192 -33.5179 -33.4821 -33.4750 -33.4458 -33.4405
   -29.1368 -29.1174 -28.9799 -28.9628  -9.4152  -9.3903  -9.3427  -9.2741
    -9.2049  -9.1696  -9.1427  -9.1065  -9.0633  -9.0323  -9.0062  -8.9870
     4.0091   4.4499   5.3358   6.3285   8.1164   8.4742   8.7702   9.2075
     9.2831   9.5358   9.6741   9.8764   9.9187  10.1095  10.3061  10.6580
    10.8516  11.2084  11.4495  11.6609  11.7796  12.0427  12.8161  13.0135
    13.1116  13.7968  14.3056  14.3940  15.2156  15.4389  15.8314  16.3709

     occupation numbers 
     1.0000   1.0000   1.0000   1.0000   1.0000   1.0000   1.0000   1.0000
     1.0000   1.0000   1.0000   1.0000   1.0000   1.0000   1.0000   1.0000
     1.0000   1.0000   1.0000   1.0000   1.0000   1.0000   1.0000   1.0000
     1.0000   1.0000   1.0000   1.0000   1.0000   1.0000   1.0000   1.0000
     1.0000   1.0000   1.0000   1.0000   1.0000   1.0000   1.0000   1.0000
     1.0000   1.0000   1.0000   1.0000   1.0000   1.0000   0.8913   0.0659
     0.0044   0.0000   0.0000   0.0000   0.0000   0.0000   0.0000   0.0000

          k = 0.3588-0.4508 0.0352 (  4509 PWs)   bands (ev):

   -65.5557 -65.5527 -33.5192 -33.5179 -33.4821 -33.4750 -33.4458 -33.4405
   -29.1368 -29.1174 -28.9795 -28.9631  -9.4169  -9.3746  -9.3446  -9.2709
    -9.2193  -9.2024  -9.1261  -9.0909  -9.0625  -9.0440  -9.0034  -8.9791
     4.0093   4.4316   5.3666   6.3209   8.1533   8.4441   8.7711   8.9885
     9.3612   9.5322   9.6804   9.9667  10.0392  10.1962  10.3199  10.6469
    10.7871  10.9963  11.5129  11.6992  11.7816  12.0760  12.7903  13.0294
    13.0917  13.7215  14.2501  14.5548  15.1880  15.4895  15.9309  16.0566

     occupation numbers 
     1.0000   1.0000   1.0000   1.0000   1.0000   1.0000   1.0000   1.0000
     1.0000   1.0000   1.0000   1.0000   1.0000   1.0000   1.0000   1.0000
     1.0000   1.0000   1.0000   1.0000   1.0000   1.0000   1.0000   1.0000
     1.0000   1.0000   1.0000   1.0000   1.0000   1.0000   1.0000   1.0000
     1.0000   1.0000   1.0000   1.0000   1.0000   1.0000   1.0000   1.0000
     1.0000   1.0000   1.0000   1.0000   1.0000   1.0000   0.9850   0.0454
     0.0082   0.0000   0.0000   0.0000   0.0000   0.0000   0.0000   0.0000

          k = 0.2693-0.2254 0.1474 (  4509 PWs)   bands (ev):

   -65.5568 -65.5516 -33.5171 -33.5135 -33.4862 -33.4730 -33.4487 -33.4397
   -29.1426 -29.1163 -28.9810 -28.9643  -9.4318  -9.3355  -9.2892  -9.2494
    -9.2290  -9.1935  -9.1208  -9.0735  -9.0643  -9.0513  -8.9833  -8.9675
     3.5042   4.2799   5.2870   6.1092   8.0530   8.4875   8.7551   8.8239
     9.2825   9.5387   9.7332   9.8153  10.1698  10.3898  10.5832  10.7737
    10.9246  11.2016  11.7268  11.7788  12.0355  12.5306  13.0513  13.1199
    13.4023  13.6331  14.0930  14.5118  15.1955  15.4778  15.7097  15.8381

     occupation numbers 
     1.0000   1.0000   1.0000   1.0000   1.0000   1.0000   1.0000   1.0000
     1.0000   1.0000   1.0000   1.0000   1.0000   1.0000   1.0000   1.0000
     1.0000   1.0000   1.0000   1.0000   1.0000   1.0000   1.0000   1.0000
     1.0000   1.0000   1.0000   1.0000   1.0000   1.0000   1.0000   1.0000
     1.0000   1.0000   1.0000   1.0000   1.0000   1.0000   1.0000   1.0000
     1.0000   1.0000   1.0000   1.0000   1.0000   1.0036   0.0260   0.0033
     0.0000   0.0000   0.0000   0.0000   0.0000   0.0000   0.0000   0.0000

          k = 0.2696-0.2254 0.3089 (  4518 PWs)   bands (ev):

   -65.5568 -65.5516 -33.5171 -33.5135 -33.4862 -33.4730 -33.4487 -33.4397
   -29.1425 -29.1163 -28.9816 -28.9638  -9.4359  -9.3436  -9.2862  -9.2501
    -9.1970  -9.1898  -9.1371  -9.0802  -9.0703  -9.0466  -8.9832  -8.9690
     3.6087   4.1309   5.2540   6.2090   7.9929   8.5850   8.7793   9.0349
     9.1119   9.4233   9.6374   9.8390  10.0914  10.5159  10.5823  10.7254
    10.9623  11.3287  11.4582  11.8722  12.0242  12.4406  13.0185  13.2499
    13.3391  14.0443  14.2165  14.4960  14.9346  15.2222  15.6216  15.8615

     occupation numbers 
     1.0000   1.0000   1.0000   1.0000   1.0000   1.0000   1.0000   1.0000
     1.0000   1.0000   1.0000   1.0000   1.0000   1.0000   1.0000   1.0000
     1.0000   1.0000   1.0000   1.0000   1.0000   1.0000   1.0000   1.0000
     1.0000   1.0000   1.0000   1.0000   1.0000   1.0000   1.0000   1.0000
     1.0000   1.0000   1.0000   1.0000   1.0000   1.0000   1.0000   1.0000
     1.0000   1.0000   1.0000   1.0000   1.0000   1.0002   0.0587   0.0000
     0.0000   0.0000   0.0000   0.0000   0.0000   0.0000   0.0000   0.0000

          k = 0.2688-0.2254-0.1754 (  4517 PWs)   bands (ev):

   -65.5568 -65.5516 -33.5171 -33.5135 -33.4862 -33.4730 -33.4487 -33.4397
   -29.1426 -29.1163 -28.9815 -28.9639  -9.4258  -9.3715  -9.2894  -9.2558
    -9.1933  -9.1671  -9.1271  -9.0818  -9.0561  -9.0424  -8.9917  -8.9870
     3.5308   4.2324   5.2323   6.2624   7.9963   8.4245   8.7802   8.9543
     9.2706   9.4485   9.6335   9.8080  10.0069  10.4334  10.4846  10.7951
    11.1705  11.2847  11.5719  11.8785  12.1647  12.4066  12.9360  13.2629
    13.3114  13.9010  14.2015  14.6757  14.8477  15.3070  15.6595  16.0957

     occupation numbers 
     1.0000   1.0000   1.0000   1.0000   1.0000   1.0000   1.0000   1.0000
     1.0000   1.0000   1.0000   1.0000   1.0000   1.0000   1.0000   1.0000
     1.0000   1.0000   1.0000   1.0000   1.0000   1.0000   1.0000   1.0000
     1.0000   1.0000   1.0000   1.0000   1.0000   1.0000   1.0000   1.0000
     1.0000   1.0000   1.0000   1.0000   1.0000   1.0000   1.0000   1.0000
     1.0000   1.0000   1.0000   1.0000   1.0000   1.0000   0.2821   0.0000
     0.0000   0.0000   0.0000   0.0000   0.0000   0.0000   0.0000   0.0000

          k = 0.2690-0.2254-0.0140 (  4507 PWs)   bands (ev):

   -65.5568 -65.5516 -33.5171 -33.5135 -33.4862 -33.4730 -33.4487 -33.4397
   -29.1427 -29.1162 -28.9809 -28.9644  -9.4195  -9.3703  -9.2926  -9.2550
    -9.2038  -9.1885  -9.1108  -9.0766  -9.0557  -9.0362  -8.9934  -8.9863
     3.4489   4.3592   5.2659   6.1559   8.0850   8.3257   8.7354   8.8688
     9.2434   9.6359   9.7139   9.8732   9.9727  10.3577  10.5082  10.7080
    11.2303  11.3509  11.6011  11.7636  12.3430  12.3779  13.0028  13.1143
    13.3525  13.6677  13.9955  14.5282  15.2040  15.6126  15.8240  16.0044

     occupation numbers 
     1.0000   1.0000   1.0000   1.0000   1.0000   1.0000   1.0000   1.0000
     1.0000   1.0000   1.0000   1.0000   1.0000   1.0000   1.0000   1.0000
     1.0000   1.0000   1.0000   1.0000   1.0000   1.0000   1.0000   1.0000
     1.0000   1.0000   1.0000   1.0000   1.0000   1.0000   1.0000   1.0000
     1.0000   1.0000   1.0000   1.0000   1.0000   1.0000   1.0000   1.0000
     1.0000   1.0000   1.0000   1.0000   1.0000   1.0000   0.0836   0.0040
     0.0000   0.0000   0.0000   0.0000   0.0000   0.0000   0.0000   0.0000

          k = 0.1796 0.0000 0.0983 (  4518 PWs)   bands (ev):

   -65.5573 -65.5513 -33.5161 -33.5108 -33.4883 -33.4721 -33.4498 -33.4396
   -29.1478 -29.1142 -28.9817 -28.9647  -9.4313  -9.3166  -9.2519  -9.2396
    -9.2284  -9.1867  -9.1452  -9.0637  -9.0536  -9.0340  -8.9862  -8.9718
     3.1135   4.2339   5.3303   6.0111   7.7970   8.5275   8.8097   9.0396
     9.0818   9.5587   9.8673  10.0868  10.1540  10.5380  10.6760  10.8042
    11.2489  11.3427  11.7463  11.7871  12.3680  12.6390  12.9213  13.1012
    13.1709  13.2854  13.4150  14.8826  15.1595  15.5644  15.7715  15.9604

     occupation numbers 
     1.0000   1.0000   1.0000   1.0000   1.0000   1.0000   1.0000   1.0000
     1.0000   1.0000   1.0000   1.0000   1.0000   1.0000   1.0000   1.0000
     1.0000   1.0000   1.0000   1.0000   1.0000   1.0000   1.0000   1.0000
     1.0000   1.0000   1.0000   1.0000   1.0000   1.0000   1.0000   1.0000
     1.0000   1.0000   1.0000   1.0000   1.0000   1.0000   1.0000   1.0000
     1.0000   1.0000   1.0000   1.0000   1.0000   1.0417   0.3478   0.0061
     0.0005   0.0000   0.0000   0.0000   0.0000   0.0000   0.0000   0.0000

          k = 0.1798 0.0000 0.2597 (  4523 PWs)   bands (ev):

   -65.5573 -65.5513 -33.5161 -33.5108 -33.4883 -33.4721 -33.4498 -33.4396
   -29.1476 -29.1144 -28.9824 -28.9640  -9.4365  -9.3179  -9.2603  -9.2408
    -9.1854  -9.1848  -9.1523  -9.0789  -9.0620  -9.0359  -8.9823  -8.9726
     3.2629   3.9572   5.3500   6.1807   7.7615   8.5445   8.8084   9.0441
     9.0997   9.4425   9.8566   9.9981  10.2711  10.6327  10.6703  10.8936
    11.2289  11.2585  11.6146  12.0525  12.0817  12.5562  12.7896  13.0083
    13.1669  13.6468  13.6652  14.9202  15.1043  15.3986  15.7660  15.7786

     occupation numbers 
     1.0000   1.0000   1.0000   1.0000   1.0000   1.0000   1.0000   1.0000
     1.0000   1.0000   1.0000   1.0000   1.0000   1.0000   1.0000   1.0000
     1.0000   1.0000   1.0000   1.0000   1.0000   1.0000   1.0000   1.0000
     1.0000   1.0000   1.0000   1.0000   1.0000   1.0000   1.0000   1.0000
     1.0000   1.0000   1.0000   1.0000   1.0000   1.0000   1.0000   1.0000
     1.0000   1.0000   1.0000   1.0000   1.0000   1.0073   0.9873   0.0740
     0.0006   0.0000   0.0000   0.0000   0.0000   0.0000   0.0000   0.0000

          k = 0.1790 0.0000-0.2245 (  4519 PWs)   bands (ev):

   -65.5573 -65.5513 -33.5161 -33.5108 -33.4883 -33.4721 -33.4498 -33.4396
   -29.1476 -29.1143 -28.9825 -28.9640  -9.4279  -9.3450  -9.2679  -9.2404
    -9.1854  -9.1732  -9.1261  -9.0643  -9.0635  -9.0338  -9.0002  -8.9817
     3.2391   3.9868   5.3148   6.2552   7.8668   8.3235   8.7992   9.0576
     9.1293   9.4602   9.8817   9.9255  10.1580  10.6110  10.6296  11.0367
    11.2242  11.2316  11.7122  12.0338  12.3231  12.3985  12.5544  13.0256
    13.3053  13.8010  13.8153  15.1387  15.1969  15.5002  15.8982  15.9676

     occupation numbers 
     1.0000   1.0000   1.0000   1.0000   1.0000   1.0000   1.0000   1.0000
     1.0000   1.0000   1.0000   1.0000   1.0000   1.0000   1.0000   1.0000
     1.0000   1.0000   1.0000   1.0000   1.0000   1.0000   1.0000   1.0000
     1.0000   1.0000   1.0000   1.0000   1.0000   1.0000   1.0000   1.0000
     1.0000   1.0000   1.0000   1.0000   1.0000   1.0000   1.0000   1.0000
     1.0000   1.0000   1.0000   1.0000   1.0000   1.0000   1.0069   0.0498
     0.0000   0.0000   0.0000   0.0000   0.0000   0.0000   0.0000   0.0000

          k = 0.1793 0.0000-0.0631 (  4518 PWs)   bands (ev):

   -65.5573 -65.5513 -33.5161 -33.5108 -33.4883 -33.4721 -33.4498 -33.4396
   -29.1478 -29.1142 -28.9818 -28.9646  -9.4207  -9.3475  -9.2701  -9.2392
    -9.1963  -9.1867  -9.1291  -9.0658  -9.0322  -9.0311  -8.9994  -8.9908
     3.0982   4.2572   5.2863   6.0872   7.9049   8.3237   8.8006   9.0526
     9.1411   9.5275   9.8952   9.9115  10.1213  10.5374  10.6108  10.9473
    11.3284  11.4753  11.5500  11.9009  12.2926  12.6409  12.7797  13.0161
    13.2598  13.5907  13.6069  15.0896  15.0942  15.4555  16.0444  16.0525

     occupation numbers 
     1.0000   1.0000   1.0000   1.0000   1.0000   1.0000   1.0000   1.0000
     1.0000   1.0000   1.0000   1.0000   1.0000   1.0000   1.0000   1.0000
     1.0000   1.0000   1.0000   1.0000   1.0000   1.0000   1.0000   1.0000
     1.0000   1.0000   1.0000   1.0000   1.0000   1.0000   1.0000   1.0000
     1.0000   1.0000   1.0000   1.0000   1.0000   1.0000   1.0000   1.0000
     1.0000   1.0000   1.0000   1.0000   1.0000   1.0429   1.0144   0.0621
     0.0000   0.0000   0.0000   0.0000   0.0000   0.0000   0.0000   0.0000

          k = 0.0000 0.9016-0.0000 (  4532 PWs)   bands (ev):

   -65.5557 -65.5527 -33.5193 -33.5179 -33.4822 -33.4750 -33.4458 -33.4406
   -29.1338 -29.1199 -28.9796 -28.9632  -9.4358  -9.3539  -9.3454  -9.2520
    -9.2515  -9.1873  -9.1362  -9.1158  -9.0692  -9.0174  -9.0115  -8.9621
     4.1458   4.4777   5.1742   6.3214   8.2499   8.6652   8.7642   8.9903
     9.2531   9.6293   9.7817   9.8105   9.8686  10.1561  10.2752  10.4795
    10.6552  10.9975  11.2890  11.7269  11.7814  12.1734  12.9010  13.1195
    13.5667  13.7100  14.5233  14.8438  15.1327  15.2507  15.5190  15.7034

     occupation numbers 
     1.0000   1.0000   1.0000   1.0000   1.0000   1.0000   1.0000   1.0000
     1.0000   1.0000   1.0000   1.0000   1.0000   1.0000   1.0000   1.0000
     1.0000   1.0000   1.0000   1.0000   1.0000   1.0000   1.0000   1.0000
     1.0000   1.0000   1.0000   1.0000   1.0000   1.0000   1.0000   1.0000
     1.0000   1.0000   1.0000   1.0000   1.0000   1.0000   1.0000   1.0000
     1.0000   1.0000   1.0000   1.0000   1.0000   1.0000   0.4493   0.0034
     0.0000   0.0000   0.0000   0.0000   0.0000   0.0000   0.0000   0.0000

          k = 0.0003 0.9016 0.1614 (  4520 PWs)   bands (ev):

   -65.5557 -65.5527 -33.5193 -33.5179 -33.4822 -33.4750 -33.4458 -33.4406
   -29.1338 -29.1199 -28.9796 -28.9632  -9.4293  -9.3723  -9.3554  -9.2557
    -9.2136  -9.2008  -9.1379  -9.1010  -9.0628  -9.0255  -9.0115  -8.9723
     4.1421   4.4503   5.2140   6.3428   8.1963   8.5806   8.7513   9.0715
     9.3013   9.5090   9.6885   9.9318   9.9481  10.0490  10.3413  10.5046
    10.6489  11.0582  11.3295  11.7599  11.8716  12.2076  12.9106  13.0867
    13.1932  13.8373  14.4754  14.8624  14.9348  15.1733  15.5708  15.8824

     occupation numbers 
     1.0000   1.0000   1.0000   1.0000   1.0000   1.0000   1.0000   1.0000
     1.0000   1.0000   1.0000   1.0000   1.0000   1.0000   1.0000   1.0000
     1.0000   1.0000   1.0000   1.0000   1.0000   1.0000   1.0000   1.0000
     1.0000   1.0000   1.0000   1.0000   1.0000   1.0000   1.0000   1.0000
     1.0000   1.0000   1.0000   1.0000   1.0000   1.0000   1.0000   1.0000
     1.0000   1.0000   1.0000   1.0000   1.0000   1.0000   0.4000   0.0095
     0.0002   0.0000   0.0000   0.0000   0.0000   0.0000   0.0000   0.0000

          k =-0.0006 0.9016-0.3228 (  4516 PWs)   bands (ev):

   -65.5557 -65.5527 -33.5193 -33.5179 -33.4822 -33.4750 -33.4458 -33.4406
   -29.1338 -29.1199 -28.9797 -28.9632  -9.4180  -9.3951  -9.3592  -9.2547
    -9.2127  -9.1799  -9.1446  -9.0898  -9.0458  -9.0416  -9.0116  -8.9850
     4.1385   4.4250   5.2520   6.3645   8.1482   8.4582   8.8497   9.0900
     9.3246   9.4669   9.6047   9.9507   9.9625  10.0790  10.3650  10.5011
    10.6948  10.9941  11.5153  11.7698  11.9445  12.2680  12.9226  12.9337
    13.0669  13.8518  14.4360  14.6313  14.8607  14.9744  16.0536  16.3384

     occupation numbers 
     1.0000   1.0000   1.0000   1.0000   1.0000   1.0000   1.0000   1.0000
     1.0000   1.0000   1.0000   1.0000   1.0000   1.0000   1.0000   1.0000
     1.0000   1.0000   1.0000   1.0000   1.0000   1.0000   1.0000   1.0000
     1.0000   1.0000   1.0000   1.0000   1.0000   1.0000   1.0000   1.0000
     1.0000   1.0000   1.0000   1.0000   1.0000   1.0000   1.0000   1.0000
     1.0000   1.0000   1.0000   1.0000   1.0000   1.0000   0.3419   0.2918
     0.0170   0.0000   0.0000   0.0000   0.0000   0.0000   0.0000   0.0000

          k = 0.4489-0.2254 0.2457 (  4529 PWs)   bands (ev):

   -65.5568 -65.5517 -33.5173 -33.5135 -33.4865 -33.4730 -33.4486 -33.4398
   -29.1348 -29.1226 -28.9811 -28.9647  -9.4439  -9.3586  -9.3051  -9.2587
    -9.2200  -9.1768  -9.1241  -9.0761  -9.0576  -9.0223  -8.9902  -8.9662
     3.9131   4.3068   4.8788   6.1813   8.1591   8.5660   8.7986   8.8478
     9.1916   9.4273   9.6045   9.7195   9.8089  10.4412  10.5887  10.6571
    10.7271  11.1285  11.3548  12.0685  12.2008  12.6058  13.2393  13.7063
    13.7642  14.1055  14.3830  14.7501  14.9834  15.0944  15.2544  15.8711

     occupation numbers 
     1.0000   1.0000   1.0000   1.0000   1.0000   1.0000   1.0000   1.0000
     1.0000   1.0000   1.0000   1.0000   1.0000   1.0000   1.0000   1.0000
     1.0000   1.0000   1.0000   1.0000   1.0000   1.0000   1.0000   1.0000
     1.0000   1.0000   1.0000   1.0000   1.0000   1.0000   1.0000   1.0000
     1.0000   1.0000   1.0000   1.0000   1.0000   1.0000   1.0000   1.0000
     1.0000   1.0000   1.0000   1.0000   1.0000   1.0230   0.0000   0.0000
     0.0000   0.0000   0.0000   0.0000   0.0000   0.0000   0.0000   0.0000

          k = 0.4492-0.2254 0.4072 (  4523 PWs)   bands (ev):

   -65.5568 -65.5517 -33.5173 -33.5135 -33.4865 -33.4730 -33.4486 -33.4398
   -29.1349 -29.1226 -28.9812 -28.9646  -9.4433  -9.3801  -9.3053  -9.2293
    -9.2114  -9.1726  -9.1427  -9.0751  -9.0548  -9.0166  -8.9987  -8.9695
     3.9218   4.2704   4.8910   6.2444   8.1512   8.5607   8.7184   8.8859
     9.1654   9.3565   9.5411   9.7419   9.8412  10.3596  10.4949  10.6485
    10.9801  11.2866  11.3443  12.1008  12.2368  12.5245  13.2818  13.4841
    13.7911  14.2161  14.3887  14.6294  14.8367  15.3844  15.4598  15.6409

     occupation numbers 
     1.0000   1.0000   1.0000   1.0000   1.0000   1.0000   1.0000   1.0000
     1.0000   1.0000   1.0000   1.0000   1.0000   1.0000   1.0000   1.0000
     1.0000   1.0000   1.0000   1.0000   1.0000   1.0000   1.0000   1.0000
     1.0000   1.0000   1.0000   1.0000   1.0000   1.0000   1.0000   1.0000
     1.0000   1.0000   1.0000   1.0000   1.0000   1.0000   1.0000   1.0000
     1.0000   1.0000   1.0000   1.0000   1.0000   1.0030   0.0000   0.0000
     0.0000   0.0000   0.0000   0.0000   0.0000   0.0000   0.0000   0.0000

          k = 0.4483-0.2254-0.0771 (  4520 PWs)   bands (ev):

   -65.5568 -65.5517 -33.5173 -33.5135 -33.4865 -33.4730 -33.4486 -33.4398
   -29.1349 -29.1226 -28.9809 -28.9649  -9.4306  -9.4113  -9.3084  -9.2203
    -9.1924  -9.1717  -9.1409  -9.0629  -9.0524  -9.0303  -8.9956  -8.9822
     3.8562   4.2651   5.0019   6.2783   8.2126   8.3721   8.5199   8.9292
     9.1572   9.3838   9.6627   9.7373   9.8335  10.2159  10.4839  10.5412
    11.2430  11.4159  11.7313  11.9127  12.3729  12.6559  12.9695  13.3541
    13.7480  14.0818  14.2936  14.3700  15.0024  15.2926  15.7254  15.9337

     occupation numbers 
     1.0000   1.0000   1.0000   1.0000   1.0000   1.0000   1.0000   1.0000
     1.0000   1.0000   1.0000   1.0000   1.0000   1.0000   1.0000   1.0000
     1.0000   1.0000   1.0000   1.0000   1.0000   1.0000   1.0000   1.0000
     1.0000   1.0000   1.0000   1.0000   1.0000   1.0000   1.0000   1.0000
     1.0000   1.0000   1.0000   1.0000   1.0000   1.0000   1.0000   1.0000
     1.0000   1.0000   1.0000   1.0000   1.0000   1.0530   0.1619   0.0000
     0.0000   0.0000   0.0000   0.0000   0.0000   0.0000   0.0000   0.0000

          k = 0.4486-0.2254 0.0843 (  4521 PWs)   bands (ev):

   -65.5568 -65.5517 -33.5173 -33.5135 -33.4865 -33.4730 -33.4486 -33.4398
   -29.1349 -29.1226 -28.9808 -28.9650  -9.4360  -9.3915  -9.3083  -9.2346
    -9.2080  -9.1814  -9.1187  -9.0643  -9.0553  -9.0336  -8.9878  -8.9797
     3.8506   4.2940   4.9950   6.2104   8.2395   8.3882   8.5559   8.8673
     9.2317   9.4558   9.7174   9.7507   9.7657  10.2658  10.4657  10.5506
    11.1408  11.2844  11.6771  11.9172  12.3361  12.7050  12.9486  13.4440
    13.9170  13.9580  14.1843  14.5539  15.0759  15.1683  15.5767  15.7720

     occupation numbers 
     1.0000   1.0000   1.0000   1.0000   1.0000   1.0000   1.0000   1.0000
     1.0000   1.0000   1.0000   1.0000   1.0000   1.0000   1.0000   1.0000
     1.0000   1.0000   1.0000   1.0000   1.0000   1.0000   1.0000   1.0000
     1.0000   1.0000   1.0000   1.0000   1.0000   1.0000   1.0000   1.0000
     1.0000   1.0000   1.0000   1.0000   1.0000   1.0000   1.0000   1.0000
     1.0000   1.0000   1.0000   1.0000   1.0000   1.0813   0.2317   0.0000
     0.0000   0.0000   0.0000   0.0000   0.0000   0.0000   0.0000   0.0000

          k = 0.3591-0.0000 0.1966 (  4521 PWs)   bands (ev):

   -65.5573 -65.5513 -33.5163 -33.5108 -33.4887 -33.4721 -33.4498 -33.4397
   -29.1400 -29.1201 -28.9818 -28.9653  -9.4466  -9.3580  -9.2638  -9.2610
    -9.2084  -9.1765  -9.1137  -9.0606  -9.0557  -9.0292  -8.9823  -8.9679
     3.5528   4.2353   4.9682   6.0792   7.8947   8.6536   8.7840   8.9412
     8.9423   9.3631   9.6791   9.6873  10.0286  10.4445  10.6133  10.8147
    11.0590  11.4652  11.6732  12.1459  12.3580  12.5064  13.1388  13.5498
    13.7058  14.0502  14.0579  14.5360  15.0435  15.3373  15.5120  15.6574

     occupation numbers 
     1.0000   1.0000   1.0000   1.0000   1.0000   1.0000   1.0000   1.0000
     1.0000   1.0000   1.0000   1.0000   1.0000   1.0000   1.0000   1.0000
     1.0000   1.0000   1.0000   1.0000   1.0000   1.0000   1.0000   1.0000
     1.0000   1.0000   1.0000   1.0000   1.0000   1.0000   1.0000   1.0000
     1.0000   1.0000   1.0000   1.0000   1.0000   1.0000   1.0000   1.0000
     1.0000   1.0000   1.0000   1.0000   1.0000   1.0017   0.0017   0.0000
     0.0000   0.0000   0.0000   0.0000   0.0000   0.0000   0.0000   0.0000

          k = 0.3594-0.0000 0.3580 (  4521 PWs)   bands (ev):

   -65.5573 -65.5513 -33.5163 -33.5108 -33.4887 -33.4721 -33.4498 -33.4397
   -29.1400 -29.1200 -28.9822 -28.9649  -9.4491  -9.3707  -9.2612  -9.2338
    -9.2015  -9.1759  -9.1417  -9.0569  -9.0463  -9.0284  -8.9902  -8.9682
     3.6349   4.1143   4.9322   6.2159   7.8762   8.6784   8.7715   8.9607
     8.9805   9.2271   9.4963   9.6957  10.0681  10.5978  10.6990  10.7650
    11.1911  11.3382  11.4206  12.2703  12.4055  12.6649  12.7932  13.4017
    13.7955  14.3281  14.5271  14.8587  14.9380  15.3369  15.5330  15.5741

     occupation numbers 
     1.0000   1.0000   1.0000   1.0000   1.0000   1.0000   1.0000   1.0000
     1.0000   1.0000   1.0000   1.0000   1.0000   1.0000   1.0000   1.0000
     1.0000   1.0000   1.0000   1.0000   1.0000   1.0000   1.0000   1.0000
     1.0000   1.0000   1.0000   1.0000   1.0000   1.0000   1.0000   1.0000
     1.0000   1.0000   1.0000   1.0000   1.0000   1.0000   1.0000   1.0000
     1.0000   1.0000   1.0000   1.0000   1.0000   1.0593   0.9762   0.0000
     0.0000   0.0000   0.0000   0.0000   0.0000   0.0000   0.0000   0.0000

          k = 0.3585-0.0000-0.1263 (  4527 PWs)   bands (ev):

   -65.5573 -65.5513 -33.5163 -33.5108 -33.4887 -33.4721 -33.4498 -33.4397
   -29.1401 -29.1200 -28.9818 -28.9652  -9.4382  -9.4004  -9.2598  -9.2441
    -9.1782  -9.1743  -9.1230  -9.0567  -9.0378  -9.0277  -8.9991  -8.9842
     3.5204   4.2324   4.9689   6.2493   7.9980   8.3398   8.7676   8.8315
     8.9622   9.3548   9.5114   9.7118  10.0511  10.3468  10.7185  10.7516
    11.4302  11.4737  11.6671  12.3394  12.4454  12.7235  13.0042  13.1333
    13.5292  14.2317  14.3944  14.8853  15.1017  15.4859  15.4862  15.8604

     occupation numbers 
     1.0000   1.0000   1.0000   1.0000   1.0000   1.0000   1.0000   1.0000
     1.0000   1.0000   1.0000   1.0000   1.0000   1.0000   1.0000   1.0000
     1.0000   1.0000   1.0000   1.0000   1.0000   1.0000   1.0000   1.0000
     1.0000   1.0000   1.0000   1.0000   1.0000   1.0000   1.0000   1.0000
     1.0000   1.0000   1.0000   1.0000   1.0000   1.0000   1.0000   1.0000
     1.0000   1.0000   1.0000   1.0000   1.0002   1.0829   0.0810   0.0021
     0.0000   0.0000   0.0000   0.0000   0.0000   0.0000   0.0000   0.0000

          k = 0.3588-0.0000 0.0352 (  4528 PWs)   bands (ev):

   -65.5573 -65.5513 -33.5163 -33.5108 -33.4887 -33.4721 -33.4498 -33.4397
   -29.1401 -29.1200 -28.9814 -28.9656  -9.4346  -9.3948  -9.2596  -9.2572
    -9.1928  -9.1788  -9.0920  -9.0564  -9.0555  -9.0285  -8.9895  -8.9838
     3.4648   4.3209   5.0202   6.0935   8.0203   8.4473   8.6641   8.7798
     8.9440   9.5394   9.6863   9.7036   9.9619  10.2431  10.5791  10.7962
    11.4557  11.5512  11.9188  12.0533  12.5213  12.6662  13.0270  13.3497
    13.5170  13.9749  14.0979  14.4918  15.1543  15.3179  15.5474  15.7421

     occupation numbers 
     1.0000   1.0000   1.0000   1.0000   1.0000   1.0000   1.0000   1.0000
     1.0000   1.0000   1.0000   1.0000   1.0000   1.0000   1.0000   1.0000
     1.0000   1.0000   1.0000   1.0000   1.0000   1.0000   1.0000   1.0000
     1.0000   1.0000   1.0000   1.0000   1.0000   1.0000   1.0000   1.0000
     1.0000   1.0000   1.0000   1.0000   1.0000   1.0000   1.0000   1.0000
     1.0000   1.0000   1.0000   1.0000   1.0027   1.0601   0.0481   0.0000
     0.0000   0.0000   0.0000   0.0000   0.0000   0.0000   0.0000   0.0000

          k = 0.0000-1.3523 0.0000 (  4538 PWs)   bands (ev):

   -65.5573 -65.5513 -33.5163 -33.5108 -33.4888 -33.4722 -33.4498 -33.4398
   -29.1325 -29.1266 -28.9818 -28.9656  -9.4530  -9.3719  -9.2695  -9.2694
    -9.1976  -9.1731  -9.1364  -9.0537  -9.0253  -9.0116  -9.0011  -8.9685
     3.9070   4.2658   4.6222   6.1181   7.9300   8.6937   8.8106   8.8519
     8.9927   9.4129   9.4436   9.6288   9.7479  10.5145  10.5433  10.8355
    11.0453  11.1546  11.5526  12.2320  12.4974  12.9343  13.1160  13.3903
    14.1949  14.4721  14.6859  14.7346  15.0778  15.1731  15.5674  15.8110

     occupation numbers 
     1.0000   1.0000   1.0000   1.0000   1.0000   1.0000   1.0000   1.0000
     1.0000   1.0000   1.0000   1.0000   1.0000   1.0000   1.0000   1.0000
     1.0000   1.0000   1.0000   1.0000   1.0000   1.0000   1.0000   1.0000
     1.0000   1.0000   1.0000   1.0000   1.0000   1.0000   1.0000   1.0000
     1.0000   1.0000   1.0000   1.0000   1.0000   1.0000   1.0000   1.0000
     1.0000   1.0000   1.0000   1.0000   1.0013   0.2892   0.0038   0.0000
     0.0000   0.0000   0.0000   0.0000   0.0000   0.0000   0.0000   0.0000

          k = 0.0003-1.3523 0.1614 (  4508 PWs)   bands (ev):

   -65.5573 -65.5513 -33.5163 -33.5108 -33.4888 -33.4722 -33.4498 -33.4398
   -29.1325 -29.1266 -28.9816 -28.9658  -9.4507  -9.3989  -9.2684  -9.2427
    -9.1816  -9.1751  -9.1432  -9.0524  -9.0257  -9.0214  -8.9961  -8.9747
     3.8967   4.1430   4.7751   6.1825   7.9892   8.5142   8.7967   8.8120
     8.8479   9.3620   9.4070   9.6361   9.8909  10.3022  10.5343  10.8363
    11.3572  11.5225  11.6070  12.3861  12.4091  12.8912  12.9008  13.3527
    14.1090  14.3332  14.7908  14.8858  15.0807  15.1492  15.3101  15.8406

     occupation numbers 
     1.0000   1.0000   1.0000   1.0000   1.0000   1.0000   1.0000   1.0000
     1.0000   1.0000   1.0000   1.0000   1.0000   1.0000   1.0000   1.0000
     1.0000   1.0000   1.0000   1.0000   1.0000   1.0000   1.0000   1.0000
     1.0000   1.0000   1.0000   1.0000   1.0000   1.0000   1.0000   1.0000
     1.0000   1.0000   1.0000   1.0000   1.0000   1.0000   1.0000   1.0000
     1.0000   1.0000   1.0000   1.0000   1.0000   0.5017   0.4506   0.0000
     0.0000   0.0000   0.0000   0.0000   0.0000   0.0000   0.0000   0.0000

          k =-0.0006-1.3523-0.3228 (  4506 PWs)   bands (ev):

   -65.5573 -65.5513 -33.5163 -33.5108 -33.4888 -33.4722 -33.4498 -33.4398
   -29.1325 -29.1266 -28.9814 -28.9659  -9.4383  -9.4303  -9.2673  -9.2118
    -9.1823  -9.1771  -9.1407  -9.0510  -9.0316  -9.0261  -8.9933  -8.9808
     3.8909   4.0555   4.8919   6.2448   8.1572   8.2980   8.5360   8.8216
     8.8352   9.3555   9.3913   9.6448  10.0083  10.1465  10.5309  10.8335
    11.6798  11.6823  11.9591  12.2924  12.3984  12.6542  12.8914  13.2946
    14.0639  14.2058  14.8453  14.9666  14.9827  15.0236  15.4059  15.7871

     occupation numbers 
     1.0000   1.0000   1.0000   1.0000   1.0000   1.0000   1.0000   1.0000
     1.0000   1.0000   1.0000   1.0000   1.0000   1.0000   1.0000   1.0000
     1.0000   1.0000   1.0000   1.0000   1.0000   1.0000   1.0000   1.0000
     1.0000   1.0000   1.0000   1.0000   1.0000   1.0000   1.0000   1.0000
     1.0000   1.0000   1.0000   1.0000   1.0000   1.0000   1.0000   1.0000
     1.0000   1.0000   1.0000   1.0000   1.0000   1.0519   0.5005   0.0000
     0.0000   0.0000   0.0000   0.0000   0.0000   0.0000   0.0000   0.0000

     the Fermi energy is    12.9105 ev

!    total energy              =    -850.51216612 Ry
     estimated scf accuracy    <          5.9E-10 Ry
     smearing contrib. (-TS)   =      -0.00060825 Ry
     internal energy E=F+TS    =    -850.51155787 Ry

     The total energy is F=E-TS. E is the sum of the following terms:
     one-electron contribution =    -348.66593993 Ry
     hartree contribution      =     213.55383393 Ry
     xc contribution           =    -177.41137640 Ry
     ewald contribution        =    -537.98807547 Ry

     convergence has been achieved in  13 iterations

     Forces acting on atoms (cartesian axes, Ry/au):

     atom    1 type  3   force =     0.00020088   -0.00000000   -0.00058316
     atom    2 type  3   force =    -0.00020088    0.00000000    0.00058316
     atom    3 type  3   force =     0.00001716   -0.00000000    0.00002996
     atom    4 type  3   force =    -0.00001716    0.00000000   -0.00002996
     atom    5 type  2   force =     0.00027434   -0.00000000   -0.00035127
     atom    6 type  2   force =    -0.00027434    0.00000000    0.00035127
     atom    7 type  2   force =    -0.00012738    0.00000000    0.00019801
     atom    8 type  2   force =     0.00012738   -0.00000000   -0.00019801
     atom    9 type  1   force =     0.00088037   -0.00000000   -0.00034478
     atom   10 type  1   force =    -0.00088037    0.00000000    0.00034478
     The non-local contrib.  to forces
     atom    1 type  3   force =    -0.00571248    0.00000000    0.00565400
     atom    2 type  3   force =     0.00571248   -0.00000000   -0.00565400
     atom    3 type  3   force =     0.00823814   -0.00000000    0.00221102
     atom    4 type  3   force =    -0.00823814    0.00000000   -0.00221102
     atom    5 type  2   force =    -0.02846864    0.00000000   -0.04958960
     atom    6 type  2   force =     0.02846864   -0.00000000    0.04958960
     atom    7 type  2   force =    -0.04902850    0.00000000    0.03787657
     atom    8 type  2   force =     0.04902850   -0.00000000   -0.03787657
     atom    9 type  1   force =    -0.02953656    0.00000000    0.02308220
     atom   10 type  1   force =     0.02953656   -0.00000000   -0.02308220
     The ionic contribution  to forces
     atom    1 type  3   force =     5.10717451   -0.00000000   13.71124045
     atom    2 type  3   force =    -5.10717451    0.00000000  -13.71124045
     atom    3 type  3   force =    -3.42685251   -0.00000000   10.06796728
     atom    4 type  3   force =     3.42685251    0.00000000  -10.06796728
     atom    5 type  2   force =    -5.19086443    0.00000000    2.10738953
     atom    6 type  2   force =     5.19086443   -0.00000000   -2.10738953
     atom    7 type  2   force =     1.77126126   -0.00000000    4.68398926
     atom    8 type  2   force =    -1.77126126    0.00000000   -4.68398925
     atom    9 type  1   force =     2.98541414    0.00000000  -18.50197790
     atom   10 type  1   force =    -2.98541414   -0.00000000   18.50197790
     The local contribution  to forces
     atom    1 type  3   force =    -5.10278515    0.00000000  -13.71804147
     atom    2 type  3   force =     5.10278515   -0.00000000   13.71804148
     atom    3 type  3   force =     3.42048977   -0.00000000  -10.07057297
     atom    4 type  3   force =    -3.42048977   -0.00000000   10.07057298
     atom    5 type  2   force =     5.21368674   -0.00000000   -2.06331252
     atom    6 type  2   force =    -5.21368674   -0.00000000    2.06331252
     atom    7 type  2   force =    -1.72667291    0.00000000   -4.71710568
     atom    8 type  2   force =     1.72667291    0.00000000    4.71710568
     atom    9 type  1   force =    -2.95499013   -0.00000000   18.47857991
     atom   10 type  1   force =     2.95499013   -0.00000000  -18.47857988
     The core correction contribution to forces
     atom    1 type  3   force =     0.00152966    0.00000000    0.00051712
     atom    2 type  3   force =    -0.00152966    0.00000000   -0.00051712
     atom    3 type  3   force =    -0.00184385    0.00000000    0.00039701
     atom    4 type  3   force =     0.00184385   -0.00000000   -0.00039701
     atom    5 type  2   force =     0.00591284   -0.00000000    0.00515560
     atom    6 type  2   force =    -0.00591284    0.00000000   -0.00515560
     atom    7 type  2   force =     0.00431010    0.00000000   -0.00456826
     atom    8 type  2   force =    -0.00431010   -0.00000000    0.00456826
     atom    9 type  1   force =     0.00000000    0.00000000    0.00000000
     atom   10 type  1   force =     0.00000000    0.00000000    0.00000000
     The Hubbard contrib.    to forces
     atom    1 type  3   force =     0.00000000    0.00000000    0.00000000
     atom    2 type  3   force =     0.00000000    0.00000000    0.00000000
     atom    3 type  3   force =     0.00000000    0.00000000    0.00000000
     atom    4 type  3   force =     0.00000000    0.00000000    0.00000000
     atom    5 type  2   force =     0.00000000    0.00000000    0.00000000
     atom    6 type  2   force =     0.00000000    0.00000000    0.00000000
     atom    7 type  2   force =     0.00000000    0.00000000    0.00000000
     atom    8 type  2   force =     0.00000000    0.00000000    0.00000000
     atom    9 type  1   force =     0.00000000    0.00000000    0.00000000
     atom   10 type  1   force =     0.00000000    0.00000000    0.00000000
     The SCF correction term to forces
     atom    1 type  3   force =    -0.00000566    0.00000000    0.00004674
     atom    2 type  3   force =     0.00000566   -0.00000000   -0.00004674
     atom    3 type  3   force =    -0.00001439    0.00000000    0.00002763
     atom    4 type  3   force =     0.00001439   -0.00000000   -0.00002763
     atom    5 type  2   force =     0.00000782    0.00000000    0.00000571
     atom    6 type  2   force =    -0.00000782    0.00000000   -0.00000571
     atom    7 type  2   force =     0.00000267    0.00000000    0.00000614
     atom    8 type  2   force =    -0.00000267   -0.00000000   -0.00000614
     atom    9 type  1   force =    -0.00000709   -0.00000000   -0.00002896
     atom   10 type  1   force =     0.00000709    0.00000000    0.00002896

     Total force =     0.001749     Total SCF correction =     0.000092


     Computing stress (Cartesian axis) and pressure

          total   stress  (Ry/bohr**3)                   (kbar)     P=        0.01
  -0.00000215   0.00000000  -0.00000331           -0.32        0.00       -0.49
   0.00000000   0.00000622   0.00000000            0.00        0.91        0.00
  -0.00000331   0.00000000  -0.00000378           -0.49        0.00       -0.56

     kinetic stress (kbar)  18039.02     -0.00     33.74
                               -0.00  18004.76     -0.00
                               33.74     -0.00  18019.01

     local   stress (kbar) -11087.11     -0.00    249.63
                               -0.00 -18969.12      0.00
                              249.63      0.00   -215.08

     nonloc. stress (kbar)   8591.44     -0.00     -1.07
                               -0.00   8632.20      0.00
                               -1.07      0.00   8612.43

     hartree stress (kbar)   8724.59     -0.00   -227.93
                               -0.00  12262.42     -0.00
                             -227.93     -0.00   3382.73

     exc-cor stress (kbar)   5466.47      0.00      0.36
                                0.00   5467.01      0.00
                                0.36      0.00   5466.39

     corecor stress (kbar)  -9666.71      0.00      0.18
                                0.00  -9670.67     -0.00
                                0.18     -0.00  -9667.11

     ewald   stress (kbar) -20068.02     -0.00    -55.41
                               -0.00 -15725.69     -0.00
                              -55.41     -0.00 -25598.92

     hubbard stress (kbar)      0.00      0.00      0.00
                                0.00      0.00      0.00
                                0.00      0.00      0.00

     DFT-D   stress (kbar)      0.00      0.00      0.00
                                0.00      0.00      0.00
                                0.00      0.00      0.00

     XDM     stress (kbar)      0.00      0.00      0.00
                                0.00      0.00      0.00
                                0.00      0.00      0.00

     dft-nl  stress (kbar)      0.00      0.00      0.00
                                0.00      0.00      0.00
                                0.00      0.00      0.00

     TS-vdW  stress (kbar)      0.00      0.00      0.00
                                0.00      0.00      0.00
                                0.00      0.00      0.00


                                0.00      0.00      0.00
                                0.00      0.00      0.00


                                0.00      0.00      0.00


     Writing all to output data dir ./out/aiida.save/

     init_run     :      1.21s CPU      1.25s WALL (       1 calls)
     electrons    :      8.22s CPU      8.37s WALL (       1 calls)
     forces       :      0.37s CPU      0.38s WALL (       1 calls)
     stress       :      0.79s CPU      0.80s WALL (       1 calls)

     Called by init_run:
     wfcinit      :      0.20s CPU      0.21s WALL (       1 calls)
     wfcinit:atom :      0.00s CPU      0.00s WALL (       6 calls)
     wfcinit:wfcr :      0.19s CPU      0.20s WALL (       6 calls)
     potinit      :      0.44s CPU      0.45s WALL (       1 calls)
     hinit0       :      0.52s CPU      0.52s WALL (       1 calls)

     Called by electrons:
     c_bands      :      7.15s CPU      7.23s WALL (      13 calls)
     sum_band     :      0.74s CPU      0.77s WALL (      13 calls)
     v_of_rho     :      0.18s CPU      0.19s WALL (      14 calls)
     v_h          :      0.01s CPU      0.01s WALL (      14 calls)
     v_xc         :      0.19s CPU      0.20s WALL (      16 calls)
     newd         :      0.08s CPU      0.08s WALL (      14 calls)
     mix_rho      :      0.02s CPU      0.03s WALL (      13 calls)

     Called by c_bands:
     init_us_2    :      0.05s CPU      0.05s WALL (     174 calls)
     cegterg      :      6.15s CPU      6.20s WALL (      78 calls)

     Called by sum_band:
     sum_band:wei :      0.02s CPU      0.02s WALL (      13 calls)
     sum_band:loo :      0.57s CPU      0.59s WALL (      13 calls)
     sum_band:buf :      0.01s CPU      0.01s WALL (      78 calls)
     sum_band:ini :      0.02s CPU      0.02s WALL (      78 calls)
     sum_band:cal :      0.08s CPU      0.09s WALL (      78 calls)
     sum_band:bec :      0.00s CPU      0.00s WALL (      78 calls)
     addusdens    :      0.08s CPU      0.08s WALL (      13 calls)
     addusd:skk   :      0.00s CPU      0.00s WALL (      26 calls)
     addusd:dgemm :      0.02s CPU      0.02s WALL (      26 calls)
     addusd:qvan2 :      0.03s CPU      0.04s WALL (      26 calls)

     Called by *egterg:
     cdiaghg      :      1.95s CPU      1.96s WALL (     441 calls)
     cegterg:over :      0.28s CPU      0.28s WALL (     363 calls)
     cegterg:upda :      0.18s CPU      0.19s WALL (     363 calls)
     cegterg:last :      0.33s CPU      0.33s WALL (     181 calls)
     cdiaghg:chol :      0.09s CPU      0.09s WALL (     441 calls)
     cdiaghg:inve :      0.04s CPU      0.04s WALL (     441 calls)
     cdiaghg:para :      0.13s CPU      0.13s WALL (     882 calls)
     h_psi        :      3.27s CPU      3.31s WALL (     447 calls)
     s_psi        :      0.21s CPU      0.21s WALL (     447 calls)
     g_psi        :      0.01s CPU      0.01s WALL (     363 calls)

     Called by h_psi:
     h_psi:calbec :      0.33s CPU      0.33s WALL (     447 calls)
     vloc_psi     :      2.69s CPU      2.72s WALL (     447 calls)
     add_vuspsi   :      0.24s CPU      0.24s WALL (     447 calls)

     General routines
     calbec       :      0.45s CPU      0.46s WALL (     555 calls)
     fft          :      0.47s CPU      0.47s WALL (     205 calls)
     ffts         :      0.20s CPU      0.21s WALL (      27 calls)
     fftw         :      2.90s CPU      2.95s WALL (   28866 calls)
     interpolate  :      0.21s CPU      0.21s WALL (      14 calls)

     Parallel routines

     PWSCF        :     10.94s CPU     11.39s WALL


   This run was terminated on:  22:33:14  17Oct2022            

=------------------------------------------------------------------------------=
   JOB DONE.
=------------------------------------------------------------------------------=
