
     Program PWSCF v.6.8 starts on  8Sep2022 at 21:35:29 

     This program is part of the open-source Quantum ESPRESSO suite
     for quantum simulation of materials; please cite
         "P. Giannozzi et al., J. Phys.:Condens. Matter 21 395502 (2009);
         "P. Giannozzi et al., J. Phys.:Condens. Matter 29 465901 (2017);
         "P. Giannozzi et al., J. Chem. Phys. 152 154105 (2020);
          URL http://www.quantum-espresso.org", 
     in publications or presentations arising from this work. More details at
     http://www.quantum-espresso.org/quote

     Parallel version (MPI), running on   128 processors

     MPI processes distributed on     1 nodes
     K-points division:     npool     =       8
     R & G space division:  proc/nbgrp/npool/nimage =      16
     237833 MiB available memory on the printing compute node when the environment starts

     Reading input from aiida.in

     Current dimensions of program PWSCF are:
     Max number of different atomic species (ntypx) = 10
     Max number of k-points (npk) =  40000
     Max angular momentum in pseudopotentials (lmaxx) =  4
     file Cd.pbesol-dn-rrkjus_psl.0.3.1.UPF: wavefunction(s)  4D renormalized
     Message from routine setup:
     using ibrav=0 with symmetry is DISCOURAGED, use correct ibrav instead

     Subspace diagonalization in iterative solution of the eigenvalue problem:
     one sub-group per band group will be used
     scalapack distributed-memory algorithm (size of sub-group:  4*  4 procs)


     Parallelization info
     --------------------
     sticks:   dense  smooth     PW     G-vecs:    dense   smooth      PW
     Min         122      61     18                 4105     1444     242
     Max         124      63     19                 4107     1447     245
     Sum        1969     981    293                65699    23127    3887

     Using Slab Decomposition



     bravais-lattice index     =            0
     lattice parameter (alat)  =       7.1769  a.u.
     unit-cell volume          =     369.6619 (a.u.)^3
     number of atoms/cell      =            5
     number of atomic types    =            3
     number of electrons       =        71.00
     number of Kohn-Sham states=           43
     kinetic-energy cutoff     =      60.0000  Ry
     charge density cutoff     =     480.0000  Ry
     scf convergence threshold =      1.0E-09
     mixing beta               =       0.4000
     number of iterations used =            8  plain     mixing
     Exchange-correlation= SLA  PW   PSX  PSC
                           (   1   4  10   8   0   0   0)

     celldm(1)=   7.176867  celldm(2)=   0.000000  celldm(3)=   0.000000
     celldm(4)=   0.000000  celldm(5)=   0.000000  celldm(6)=   0.000000

     crystal axes: (cart. coord. in units of alat)
               a(1) = (   1.000000   0.000000   0.000000 )  
               a(2) = (   0.000000   1.000000   0.000000 )  
               a(3) = (   0.000000   0.000000   1.000000 )  

     reciprocal axes: (cart. coord. in units 2 pi/alat)
               b(1) = (  1.000000  0.000000  0.000000 )  
               b(2) = (  0.000000  1.000000  0.000000 )  
               b(3) = (  0.000000  0.000000  1.000000 )  


     PseudoPot. # 1 for Cd read from file:
     ./pseudo/Cd.pbesol-dn-rrkjus_psl.0.3.1.UPF
     MD5 check sum: 75c3aef906f21f7061977001f0aeeab1
     Pseudo is Ultrasoft + core correction, Zval = 12.0
     Generated using "atomic" code by A. Dal Corso  v.6.0 svn rev. 13079
     Using radial grid of 1239 points,  6 beta functions with: 
                l(1) =   0
                l(2) =   0
                l(3) =   1
                l(4) =   1
                l(5) =   2
                l(6) =   2
     Q(r) pseudized with 0 coefficients 


     PseudoPot. # 2 for N  read from file:
     ./pseudo/N.pbesol-theos.UPF
     MD5 check sum: 9926e2c7bc78d27c98a1e787a398c95a
     Pseudo is Ultrasoft + core correction, Zval =  5.0
     Generated using "atomic" code by A. Dal Corso  v.5.1
     Using radial grid of 1085 points,  4 beta functions with: 
                l(1) =   0
                l(2) =   0
                l(3) =   1
                l(4) =   1
     Q(r) pseudized with 0 coefficients 


     PseudoPot. # 3 for Ni read from file:
     ./pseudo/ni_pbesol_v1.4.uspp.F.UPF
     MD5 check sum: de937c0c8ae4b350e69c02b76d8a83cb
     Pseudo is Ultrasoft + core correction, Zval = 18.0
     Generated by new atomic code, or converted to UPF format
     Using radial grid of  865 points,  6 beta functions with: 
                l(1) =   0
                l(2) =   0
                l(3) =   1
                l(4) =   1
                l(5) =   2
                l(6) =   2
     Q(r) pseudized with 10 coefficients,  rinner =    0.980   0.980   0.980
                                                       0.980   0.980

     atomic species   valence    mass     pseudopotential
        Cd            12.00   112.41100     Cd( 1.00)
        N              5.00    14.00670     N ( 1.00)
        Ni            18.00    58.69340     Ni( 1.00)

     48 Sym. Ops., with inversion, found


                                    s                        frac. trans.

      isym =  1     identity                                     

 cryst.   s( 1) = (     1          0          0      )
                  (     0          1          0      )
                  (     0          0          1      )

 cart.    s( 1) = (  1.0000000  0.0000000  0.0000000 )
                  (  0.0000000  1.0000000  0.0000000 )
                  (  0.0000000  0.0000000  1.0000000 )


      isym =  2     180 deg rotation - cart. axis [0,0,1]        

 cryst.   s( 2) = (    -1          0          0      )
                  (     0         -1          0      )
                  (     0          0          1      )

 cart.    s( 2) = ( -1.0000000  0.0000000  0.0000000 )
                  (  0.0000000 -1.0000000  0.0000000 )
                  (  0.0000000  0.0000000  1.0000000 )


      isym =  3     180 deg rotation - cart. axis [0,1,0]        

 cryst.   s( 3) = (    -1          0          0      )
                  (     0          1          0      )
                  (     0          0         -1      )

 cart.    s( 3) = ( -1.0000000  0.0000000  0.0000000 )
                  (  0.0000000  1.0000000  0.0000000 )
                  (  0.0000000  0.0000000 -1.0000000 )


      isym =  4     180 deg rotation - cart. axis [1,0,0]        

 cryst.   s( 4) = (     1          0          0      )
                  (     0         -1          0      )
                  (     0          0         -1      )

 cart.    s( 4) = (  1.0000000  0.0000000  0.0000000 )
                  (  0.0000000 -1.0000000  0.0000000 )
                  (  0.0000000  0.0000000 -1.0000000 )


      isym =  5     180 deg rotation - cart. axis [1,1,0]        

 cryst.   s( 5) = (     0          1          0      )
                  (     1          0          0      )
                  (     0          0         -1      )

 cart.    s( 5) = (  0.0000000  1.0000000  0.0000000 )
                  (  1.0000000  0.0000000  0.0000000 )
                  (  0.0000000  0.0000000 -1.0000000 )


      isym =  6     180 deg rotation - cart. axis [1,-1,0]       

 cryst.   s( 6) = (     0         -1          0      )
                  (    -1          0          0      )
                  (     0          0         -1      )

 cart.    s( 6) = (  0.0000000 -1.0000000  0.0000000 )
                  ( -1.0000000  0.0000000  0.0000000 )
                  (  0.0000000  0.0000000 -1.0000000 )


      isym =  7      90 deg rotation - cart. axis [0,0,-1]       

 cryst.   s( 7) = (     0         -1          0      )
                  (     1          0          0      )
                  (     0          0          1      )

 cart.    s( 7) = (  0.0000000  1.0000000  0.0000000 )
                  ( -1.0000000  0.0000000  0.0000000 )
                  (  0.0000000  0.0000000  1.0000000 )


      isym =  8      90 deg rotation - cart. axis [0,0,1]        

 cryst.   s( 8) = (     0          1          0      )
                  (    -1          0          0      )
                  (     0          0          1      )

 cart.    s( 8) = (  0.0000000 -1.0000000  0.0000000 )
                  (  1.0000000  0.0000000  0.0000000 )
                  (  0.0000000  0.0000000  1.0000000 )


      isym =  9     180 deg rotation - cart. axis [1,0,1]        

 cryst.   s( 9) = (     0          0          1      )
                  (     0         -1          0      )
                  (     1          0          0      )

 cart.    s( 9) = (  0.0000000  0.0000000  1.0000000 )
                  (  0.0000000 -1.0000000  0.0000000 )
                  (  1.0000000  0.0000000  0.0000000 )


      isym = 10     180 deg rotation - cart. axis [-1,0,1]       

 cryst.   s(10) = (     0          0         -1      )
                  (     0         -1          0      )
                  (    -1          0          0      )

 cart.    s(10) = (  0.0000000  0.0000000 -1.0000000 )
                  (  0.0000000 -1.0000000  0.0000000 )
                  ( -1.0000000  0.0000000  0.0000000 )


      isym = 11      90 deg rotation - cart. axis [0,1,0]        

 cryst.   s(11) = (     0          0         -1      )
                  (     0          1          0      )
                  (     1          0          0      )

 cart.    s(11) = (  0.0000000  0.0000000  1.0000000 )
                  (  0.0000000  1.0000000  0.0000000 )
                  ( -1.0000000  0.0000000  0.0000000 )


      isym = 12      90 deg rotation - cart. axis [0,-1,0]       

 cryst.   s(12) = (     0          0          1      )
                  (     0          1          0      )
                  (    -1          0          0      )

 cart.    s(12) = (  0.0000000  0.0000000 -1.0000000 )
                  (  0.0000000  1.0000000  0.0000000 )
                  (  1.0000000  0.0000000  0.0000000 )


      isym = 13     180 deg rotation - cart. axis [0,1,1]        

 cryst.   s(13) = (    -1          0          0      )
                  (     0          0          1      )
                  (     0          1          0      )

 cart.    s(13) = ( -1.0000000  0.0000000  0.0000000 )
                  (  0.0000000  0.0000000  1.0000000 )
                  (  0.0000000  1.0000000  0.0000000 )


      isym = 14     180 deg rotation - cart. axis [0,1,-1]       

 cryst.   s(14) = (    -1          0          0      )
                  (     0          0         -1      )
                  (     0         -1          0      )

 cart.    s(14) = ( -1.0000000  0.0000000  0.0000000 )
                  (  0.0000000  0.0000000 -1.0000000 )
                  (  0.0000000 -1.0000000  0.0000000 )


      isym = 15      90 deg rotation - cart. axis [-1,0,0]       

 cryst.   s(15) = (     1          0          0      )
                  (     0          0         -1      )
                  (     0          1          0      )

 cart.    s(15) = (  1.0000000  0.0000000  0.0000000 )
                  (  0.0000000  0.0000000  1.0000000 )
                  (  0.0000000 -1.0000000  0.0000000 )


      isym = 16      90 deg rotation - cart. axis [1,0,0]        

 cryst.   s(16) = (     1          0          0      )
                  (     0          0          1      )
                  (     0         -1          0      )

 cart.    s(16) = (  1.0000000  0.0000000  0.0000000 )
                  (  0.0000000  0.0000000 -1.0000000 )
                  (  0.0000000  1.0000000  0.0000000 )


      isym = 17     120 deg rotation - cart. axis [-1,-1,-1]     

 cryst.   s(17) = (     0          0          1      )
                  (     1          0          0      )
                  (     0          1          0      )

 cart.    s(17) = (  0.0000000  1.0000000  0.0000000 )
                  (  0.0000000  0.0000000  1.0000000 )
                  (  1.0000000  0.0000000  0.0000000 )


      isym = 18     120 deg rotation - cart. axis [-1,1,1]       

 cryst.   s(18) = (     0          0         -1      )
                  (    -1          0          0      )
                  (     0          1          0      )

 cart.    s(18) = (  0.0000000 -1.0000000  0.0000000 )
                  (  0.0000000  0.0000000  1.0000000 )
                  ( -1.0000000  0.0000000  0.0000000 )


      isym = 19     120 deg rotation - cart. axis [1,1,-1]       

 cryst.   s(19) = (     0          0         -1      )
                  (     1          0          0      )
                  (     0         -1          0      )

 cart.    s(19) = (  0.0000000  1.0000000  0.0000000 )
                  (  0.0000000  0.0000000 -1.0000000 )
                  ( -1.0000000  0.0000000  0.0000000 )


      isym = 20     120 deg rotation - cart. axis [1,-1,1]       

 cryst.   s(20) = (     0          0          1      )
                  (    -1          0          0      )
                  (     0         -1          0      )

 cart.    s(20) = (  0.0000000 -1.0000000  0.0000000 )
                  (  0.0000000  0.0000000 -1.0000000 )
                  (  1.0000000  0.0000000  0.0000000 )


      isym = 21     120 deg rotation - cart. axis [1,1,1]        

 cryst.   s(21) = (     0          1          0      )
                  (     0          0          1      )
                  (     1          0          0      )

 cart.    s(21) = (  0.0000000  0.0000000  1.0000000 )
                  (  1.0000000  0.0000000  0.0000000 )
                  (  0.0000000  1.0000000  0.0000000 )


      isym = 22     120 deg rotation - cart. axis [-1,1,-1]      

 cryst.   s(22) = (     0         -1          0      )
                  (     0          0         -1      )
                  (     1          0          0      )

 cart.    s(22) = (  0.0000000  0.0000000  1.0000000 )
                  ( -1.0000000  0.0000000  0.0000000 )
                  (  0.0000000 -1.0000000  0.0000000 )


      isym = 23     120 deg rotation - cart. axis [1,-1,-1]      

 cryst.   s(23) = (     0         -1          0      )
                  (     0          0          1      )
                  (    -1          0          0      )

 cart.    s(23) = (  0.0000000  0.0000000 -1.0000000 )
                  ( -1.0000000  0.0000000  0.0000000 )
                  (  0.0000000  1.0000000  0.0000000 )


      isym = 24     120 deg rotation - cart. axis [-1,-1,1]      

 cryst.   s(24) = (     0          1          0      )
                  (     0          0         -1      )
                  (    -1          0          0      )

 cart.    s(24) = (  0.0000000  0.0000000 -1.0000000 )
                  (  1.0000000  0.0000000  0.0000000 )
                  (  0.0000000 -1.0000000  0.0000000 )


      isym = 25     inversion                                    

 cryst.   s(25) = (    -1          0          0      )
                  (     0         -1          0      )
                  (     0          0         -1      )

 cart.    s(25) = ( -1.0000000  0.0000000  0.0000000 )
                  (  0.0000000 -1.0000000  0.0000000 )
                  (  0.0000000  0.0000000 -1.0000000 )


      isym = 26     inv. 180 deg rotation - cart. axis [0,0,1]   

 cryst.   s(26) = (     1          0          0      )
                  (     0          1          0      )
                  (     0          0         -1      )

 cart.    s(26) = (  1.0000000  0.0000000  0.0000000 )
                  (  0.0000000  1.0000000  0.0000000 )
                  (  0.0000000  0.0000000 -1.0000000 )


      isym = 27     inv. 180 deg rotation - cart. axis [0,1,0]   

 cryst.   s(27) = (     1          0          0      )
                  (     0         -1          0      )
                  (     0          0          1      )

 cart.    s(27) = (  1.0000000  0.0000000  0.0000000 )
                  (  0.0000000 -1.0000000  0.0000000 )
                  (  0.0000000  0.0000000  1.0000000 )


      isym = 28     inv. 180 deg rotation - cart. axis [1,0,0]   

 cryst.   s(28) = (    -1          0          0      )
                  (     0          1          0      )
                  (     0          0          1      )

 cart.    s(28) = ( -1.0000000  0.0000000  0.0000000 )
                  (  0.0000000  1.0000000  0.0000000 )
                  (  0.0000000  0.0000000  1.0000000 )


      isym = 29     inv. 180 deg rotation - cart. axis [1,1,0]   

 cryst.   s(29) = (     0         -1          0      )
                  (    -1          0          0      )
                  (     0          0          1      )

 cart.    s(29) = (  0.0000000 -1.0000000  0.0000000 )
                  ( -1.0000000  0.0000000  0.0000000 )
                  (  0.0000000  0.0000000  1.0000000 )


      isym = 30     inv. 180 deg rotation - cart. axis [1,-1,0]  

 cryst.   s(30) = (     0          1          0      )
                  (     1          0          0      )
                  (     0          0          1      )

 cart.    s(30) = (  0.0000000  1.0000000  0.0000000 )
                  (  1.0000000  0.0000000  0.0000000 )
                  (  0.0000000  0.0000000  1.0000000 )


      isym = 31     inv.  90 deg rotation - cart. axis [0,0,-1]  

 cryst.   s(31) = (     0          1          0      )
                  (    -1          0          0      )
                  (     0          0         -1      )

 cart.    s(31) = (  0.0000000 -1.0000000  0.0000000 )
                  (  1.0000000  0.0000000  0.0000000 )
                  (  0.0000000  0.0000000 -1.0000000 )


      isym = 32     inv.  90 deg rotation - cart. axis [0,0,1]   

 cryst.   s(32) = (     0         -1          0      )
                  (     1          0          0      )
                  (     0          0         -1      )

 cart.    s(32) = (  0.0000000  1.0000000  0.0000000 )
                  ( -1.0000000  0.0000000  0.0000000 )
                  (  0.0000000  0.0000000 -1.0000000 )


      isym = 33     inv. 180 deg rotation - cart. axis [1,0,1]   

 cryst.   s(33) = (     0          0         -1      )
                  (     0          1          0      )
                  (    -1          0          0      )

 cart.    s(33) = (  0.0000000  0.0000000 -1.0000000 )
                  (  0.0000000  1.0000000  0.0000000 )
                  ( -1.0000000  0.0000000  0.0000000 )


      isym = 34     inv. 180 deg rotation - cart. axis [-1,0,1]  

 cryst.   s(34) = (     0          0          1      )
                  (     0          1          0      )
                  (     1          0          0      )

 cart.    s(34) = (  0.0000000  0.0000000  1.0000000 )
                  (  0.0000000  1.0000000  0.0000000 )
                  (  1.0000000  0.0000000  0.0000000 )


      isym = 35     inv.  90 deg rotation - cart. axis [0,1,0]   

 cryst.   s(35) = (     0          0          1      )
                  (     0         -1          0      )
                  (    -1          0          0      )

 cart.    s(35) = (  0.0000000  0.0000000 -1.0000000 )
                  (  0.0000000 -1.0000000  0.0000000 )
                  (  1.0000000  0.0000000  0.0000000 )


      isym = 36     inv.  90 deg rotation - cart. axis [0,-1,0]  

 cryst.   s(36) = (     0          0         -1      )
                  (     0         -1          0      )
                  (     1          0          0      )

 cart.    s(36) = (  0.0000000  0.0000000  1.0000000 )
                  (  0.0000000 -1.0000000  0.0000000 )
                  ( -1.0000000  0.0000000  0.0000000 )


      isym = 37     inv. 180 deg rotation - cart. axis [0,1,1]   

 cryst.   s(37) = (     1          0          0      )
                  (     0          0         -1      )
                  (     0         -1          0      )

 cart.    s(37) = (  1.0000000  0.0000000  0.0000000 )
                  (  0.0000000  0.0000000 -1.0000000 )
                  (  0.0000000 -1.0000000  0.0000000 )


      isym = 38     inv. 180 deg rotation - cart. axis [0,1,-1]  

 cryst.   s(38) = (     1          0          0      )
                  (     0          0          1      )
                  (     0          1          0      )

 cart.    s(38) = (  1.0000000  0.0000000  0.0000000 )
                  (  0.0000000  0.0000000  1.0000000 )
                  (  0.0000000  1.0000000  0.0000000 )


      isym = 39     inv.  90 deg rotation - cart. axis [-1,0,0]  

 cryst.   s(39) = (    -1          0          0      )
                  (     0          0          1      )
                  (     0         -1          0      )

 cart.    s(39) = ( -1.0000000  0.0000000  0.0000000 )
                  (  0.0000000  0.0000000 -1.0000000 )
                  (  0.0000000  1.0000000  0.0000000 )


      isym = 40     inv.  90 deg rotation - cart. axis [1,0,0]   

 cryst.   s(40) = (    -1          0          0      )
                  (     0          0         -1      )
                  (     0          1          0      )

 cart.    s(40) = ( -1.0000000  0.0000000  0.0000000 )
                  (  0.0000000  0.0000000  1.0000000 )
                  (  0.0000000 -1.0000000  0.0000000 )


      isym = 41     inv. 120 deg rotation - cart. axis [-1,-1,-1]

 cryst.   s(41) = (     0          0         -1      )
                  (    -1          0          0      )
                  (     0         -1          0      )

 cart.    s(41) = (  0.0000000 -1.0000000  0.0000000 )
                  (  0.0000000  0.0000000 -1.0000000 )
                  ( -1.0000000  0.0000000  0.0000000 )


      isym = 42     inv. 120 deg rotation - cart. axis [-1,1,1]  

 cryst.   s(42) = (     0          0          1      )
                  (     1          0          0      )
                  (     0         -1          0      )

 cart.    s(42) = (  0.0000000  1.0000000  0.0000000 )
                  (  0.0000000  0.0000000 -1.0000000 )
                  (  1.0000000  0.0000000  0.0000000 )


      isym = 43     inv. 120 deg rotation - cart. axis [1,1,-1]  

 cryst.   s(43) = (     0          0          1      )
                  (    -1          0          0      )
                  (     0          1          0      )

 cart.    s(43) = (  0.0000000 -1.0000000  0.0000000 )
                  (  0.0000000  0.0000000  1.0000000 )
                  (  1.0000000  0.0000000  0.0000000 )


      isym = 44     inv. 120 deg rotation - cart. axis [1,-1,1]  

 cryst.   s(44) = (     0          0         -1      )
                  (     1          0          0      )
                  (     0          1          0      )

 cart.    s(44) = (  0.0000000  1.0000000  0.0000000 )
                  (  0.0000000  0.0000000  1.0000000 )
                  ( -1.0000000  0.0000000  0.0000000 )


      isym = 45     inv. 120 deg rotation - cart. axis [1,1,1]   

 cryst.   s(45) = (     0         -1          0      )
                  (     0          0         -1      )
                  (    -1          0          0      )

 cart.    s(45) = (  0.0000000  0.0000000 -1.0000000 )
                  ( -1.0000000  0.0000000  0.0000000 )
                  (  0.0000000 -1.0000000  0.0000000 )


      isym = 46     inv. 120 deg rotation - cart. axis [-1,1,-1] 

 cryst.   s(46) = (     0          1          0      )
                  (     0          0          1      )
                  (    -1          0          0      )

 cart.    s(46) = (  0.0000000  0.0000000 -1.0000000 )
                  (  1.0000000  0.0000000  0.0000000 )
                  (  0.0000000  1.0000000  0.0000000 )


      isym = 47     inv. 120 deg rotation - cart. axis [1,-1,-1] 

 cryst.   s(47) = (     0          1          0      )
                  (     0          0         -1      )
                  (     1          0          0      )

 cart.    s(47) = (  0.0000000  0.0000000  1.0000000 )
                  (  1.0000000  0.0000000  0.0000000 )
                  (  0.0000000 -1.0000000  0.0000000 )


      isym = 48     inv. 120 deg rotation - cart. axis [-1,-1,1] 

 cryst.   s(48) = (     0         -1          0      )
                  (     0          0          1      )
                  (     1          0          0      )

 cart.    s(48) = (  0.0000000  0.0000000  1.0000000 )
                  ( -1.0000000  0.0000000  0.0000000 )
                  (  0.0000000  1.0000000  0.0000000 )


   Cartesian axes

     site n.     atom                  positions (alat units)
         1           Cd  tau(   1) = (   0.5000000   0.5000000   0.5000000  )
         2           Ni  tau(   2) = (   0.5000000   0.0000000   0.0000000  )
         3           Ni  tau(   3) = (   0.0000000   0.5000000   0.0000000  )
         4           Ni  tau(   4) = (   0.0000000   0.0000000   0.5000000  )
         5           N   tau(   5) = (   0.0000000   0.0000000   0.0000000  )

   Crystallographic axes

     site n.     atom                  positions (cryst. coord.)
         1           Cd  tau(   1) = (  0.5000000  0.5000000  0.5000000  )
         2           Ni  tau(   2) = (  0.5000000  0.0000000  0.0000000  )
         3           Ni  tau(   3) = (  0.0000000  0.5000000  0.0000000  )
         4           Ni  tau(   4) = (  0.0000000  0.0000000  0.5000000  )
         5           N   tau(   5) = (  0.0000000  0.0000000  0.0000000  )

     number of k points=    35  Marzari-Vanderbilt smearing, width (Ry)=  0.0100
                       cart. coord. in units 2pi/alat
        k(    1) = (   0.0000000   0.0000000   0.0000000), wk =   0.0039062
        k(    2) = (   0.0000000   0.0000000   0.1250000), wk =   0.0234375
        k(    3) = (   0.0000000   0.0000000   0.2500000), wk =   0.0234375
        k(    4) = (   0.0000000   0.0000000   0.3750000), wk =   0.0234375
        k(    5) = (   0.0000000   0.0000000  -0.5000000), wk =   0.0117188
        k(    6) = (   0.0000000   0.1250000   0.1250000), wk =   0.0468750
        k(    7) = (   0.0000000   0.1250000   0.2500000), wk =   0.0937500
        k(    8) = (   0.0000000   0.1250000   0.3750000), wk =   0.0937500
        k(    9) = (   0.0000000   0.1250000  -0.5000000), wk =   0.0468750
        k(   10) = (   0.0000000   0.2500000   0.2500000), wk =   0.0468750
        k(   11) = (   0.0000000   0.2500000   0.3750000), wk =   0.0937500
        k(   12) = (   0.0000000   0.2500000  -0.5000000), wk =   0.0468750
        k(   13) = (   0.0000000   0.3750000   0.3750000), wk =   0.0468750
        k(   14) = (   0.0000000   0.3750000  -0.5000000), wk =   0.0468750
        k(   15) = (   0.0000000  -0.5000000  -0.5000000), wk =   0.0117188
        k(   16) = (   0.1250000   0.1250000   0.1250000), wk =   0.0312500
        k(   17) = (   0.1250000   0.1250000   0.2500000), wk =   0.0937500
        k(   18) = (   0.1250000   0.1250000   0.3750000), wk =   0.0937500
        k(   19) = (   0.1250000   0.1250000  -0.5000000), wk =   0.0468750
        k(   20) = (   0.1250000   0.2500000   0.2500000), wk =   0.0937500
        k(   21) = (   0.1250000   0.2500000   0.3750000), wk =   0.1875000
        k(   22) = (   0.1250000   0.2500000  -0.5000000), wk =   0.0937500
        k(   23) = (   0.1250000   0.3750000   0.3750000), wk =   0.0937500
        k(   24) = (   0.1250000   0.3750000  -0.5000000), wk =   0.0937500
        k(   25) = (   0.1250000  -0.5000000  -0.5000000), wk =   0.0234375
        k(   26) = (   0.2500000   0.2500000   0.2500000), wk =   0.0312500
        k(   27) = (   0.2500000   0.2500000   0.3750000), wk =   0.0937500
        k(   28) = (   0.2500000   0.2500000  -0.5000000), wk =   0.0468750
        k(   29) = (   0.2500000   0.3750000   0.3750000), wk =   0.0937500
        k(   30) = (   0.2500000   0.3750000  -0.5000000), wk =   0.0937500
        k(   31) = (   0.2500000  -0.5000000  -0.5000000), wk =   0.0234375
        k(   32) = (   0.3750000   0.3750000   0.3750000), wk =   0.0312500
        k(   33) = (   0.3750000   0.3750000  -0.5000000), wk =   0.0468750
        k(   34) = (   0.3750000  -0.5000000  -0.5000000), wk =   0.0234375
        k(   35) = (  -0.5000000  -0.5000000  -0.5000000), wk =   0.0039062

                       cryst. coord.
        k(    1) = (   0.0000000   0.0000000   0.0000000), wk =   0.0039062
        k(    2) = (   0.0000000   0.0000000   0.1250000), wk =   0.0234375
        k(    3) = (   0.0000000   0.0000000   0.2500000), wk =   0.0234375
        k(    4) = (   0.0000000   0.0000000   0.3750000), wk =   0.0234375
        k(    5) = (   0.0000000   0.0000000  -0.5000000), wk =   0.0117188
        k(    6) = (   0.0000000   0.1250000   0.1250000), wk =   0.0468750
        k(    7) = (   0.0000000   0.1250000   0.2500000), wk =   0.0937500
        k(    8) = (   0.0000000   0.1250000   0.3750000), wk =   0.0937500
        k(    9) = (   0.0000000   0.1250000  -0.5000000), wk =   0.0468750
        k(   10) = (   0.0000000   0.2500000   0.2500000), wk =   0.0468750
        k(   11) = (   0.0000000   0.2500000   0.3750000), wk =   0.0937500
        k(   12) = (   0.0000000   0.2500000  -0.5000000), wk =   0.0468750
        k(   13) = (   0.0000000   0.3750000   0.3750000), wk =   0.0468750
        k(   14) = (   0.0000000   0.3750000  -0.5000000), wk =   0.0468750
        k(   15) = (   0.0000000  -0.5000000  -0.5000000), wk =   0.0117188
        k(   16) = (   0.1250000   0.1250000   0.1250000), wk =   0.0312500
        k(   17) = (   0.1250000   0.1250000   0.2500000), wk =   0.0937500
        k(   18) = (   0.1250000   0.1250000   0.3750000), wk =   0.0937500
        k(   19) = (   0.1250000   0.1250000  -0.5000000), wk =   0.0468750
        k(   20) = (   0.1250000   0.2500000   0.2500000), wk =   0.0937500
        k(   21) = (   0.1250000   0.2500000   0.3750000), wk =   0.1875000
        k(   22) = (   0.1250000   0.2500000  -0.5000000), wk =   0.0937500
        k(   23) = (   0.1250000   0.3750000   0.3750000), wk =   0.0937500
        k(   24) = (   0.1250000   0.3750000  -0.5000000), wk =   0.0937500
        k(   25) = (   0.1250000  -0.5000000  -0.5000000), wk =   0.0234375
        k(   26) = (   0.2500000   0.2500000   0.2500000), wk =   0.0312500
        k(   27) = (   0.2500000   0.2500000   0.3750000), wk =   0.0937500
        k(   28) = (   0.2500000   0.2500000  -0.5000000), wk =   0.0468750
        k(   29) = (   0.2500000   0.3750000   0.3750000), wk =   0.0937500
        k(   30) = (   0.2500000   0.3750000  -0.5000000), wk =   0.0937500
        k(   31) = (   0.2500000  -0.5000000  -0.5000000), wk =   0.0234375
        k(   32) = (   0.3750000   0.3750000   0.3750000), wk =   0.0312500
        k(   33) = (   0.3750000   0.3750000  -0.5000000), wk =   0.0468750
        k(   34) = (   0.3750000  -0.5000000  -0.5000000), wk =   0.0234375
        k(   35) = (  -0.5000000  -0.5000000  -0.5000000), wk =   0.0039062

     Dense  grid:    65699 G-vectors     FFT dimensions: (  54,  54,  54)

     Smooth grid:    23127 G-vectors     FFT dimensions: (  36,  36,  36)

     Dynamical RAM for                 wfc:       0.12 MB

     Dynamical RAM for     wfc (w. buffer):       0.71 MB

     Dynamical RAM for           str. fact:       0.19 MB

     Dynamical RAM for           local pot:       0.00 MB

     Dynamical RAM for          nlocal pot:       0.22 MB

     Dynamical RAM for                qrad:       5.27 MB

     Dynamical RAM for          rho,v,vnew:       0.45 MB

     Dynamical RAM for               rhoin:       0.15 MB

     Dynamical RAM for            rho*nmix:       1.00 MB

     Dynamical RAM for           G-vectors:       0.25 MB

     Dynamical RAM for          h,s,v(r/c):       0.02 MB

     Dynamical RAM for          <psi|beta>:       0.05 MB

     Dynamical RAM for                 psi:       0.24 MB

     Dynamical RAM for                hpsi:       0.24 MB

     Dynamical RAM for                spsi:       0.24 MB

     Dynamical RAM for      wfcinit/wfcrot:       0.35 MB

     Dynamical RAM for           addusdens:       1.53 MB

     Dynamical RAM for          addusforce:       1.55 MB

     Dynamical RAM for         addusstress:       1.60 MB

     Estimated static dynamical RAM per process >       7.94 MB

     Estimated max dynamical RAM per process >      10.55 MB

     Estimated total dynamical RAM >       1.21 GB

     Check: negative core charge=   -0.000006

     Initial potential from superposition of free atoms

     starting charge   64.99554, renormalised to   71.00000
     Starting wfcs are   52 randomized atomic wfcs

     total cpu time spent up to now is        1.0 secs

     Self-consistent Calculation

     iteration #  1     ecut=    60.00 Ry     beta= 0.40
     Davidson diagonalization with overlap

---- Real-time Memory Report at c_bands before calling an iterative solver
           122 MiB given to the printing process from OS
             0 MiB allocation reported by mallinfo(arena+hblkhd)
        230742 MiB available memory on the node where the printing process lives
------------------
     ethr =  1.00E-02,  avg # of iterations =  3.8

     total cpu time spent up to now is        1.3 secs

     total energy              =   -1131.24142951 Ry
     estimated scf accuracy    <      98.39109433 Ry

     iteration #  2     ecut=    60.00 Ry     beta= 0.40
     Davidson diagonalization with overlap

---- Real-time Memory Report at c_bands before calling an iterative solver
           125 MiB given to the printing process from OS
             0 MiB allocation reported by mallinfo(arena+hblkhd)
        230604 MiB available memory on the node where the printing process lives
------------------
     ethr =  1.00E-02,  avg # of iterations =  3.5

     total cpu time spent up to now is        1.5 secs

     total energy              =   -1158.95161323 Ry
     estimated scf accuracy    <      93.21631511 Ry

     iteration #  3     ecut=    60.00 Ry     beta= 0.40
     Davidson diagonalization with overlap

---- Real-time Memory Report at c_bands before calling an iterative solver
           127 MiB given to the printing process from OS
             0 MiB allocation reported by mallinfo(arena+hblkhd)
        230584 MiB available memory on the node where the printing process lives
------------------
     ethr =  1.00E-02,  avg # of iterations =  3.0

     total cpu time spent up to now is        1.7 secs

     total energy              =   -1169.89693220 Ry
     estimated scf accuracy    <      12.45159079 Ry

     iteration #  4     ecut=    60.00 Ry     beta= 0.40
     Davidson diagonalization with overlap

---- Real-time Memory Report at c_bands before calling an iterative solver
           129 MiB given to the printing process from OS
             0 MiB allocation reported by mallinfo(arena+hblkhd)
        230573 MiB available memory on the node where the printing process lives
------------------
     ethr =  1.00E-02,  avg # of iterations =  2.0

     total cpu time spent up to now is        1.9 secs

     total energy              =   -1171.05684067 Ry
     estimated scf accuracy    <       0.83480891 Ry

     iteration #  5     ecut=    60.00 Ry     beta= 0.40
     Davidson diagonalization with overlap

---- Real-time Memory Report at c_bands before calling an iterative solver
           130 MiB given to the printing process from OS
             0 MiB allocation reported by mallinfo(arena+hblkhd)
        230551 MiB available memory on the node where the printing process lives
------------------
     ethr =  1.18E-03,  avg # of iterations =  2.0

     total cpu time spent up to now is        2.0 secs

     total energy              =   -1171.04830411 Ry
     estimated scf accuracy    <       0.19762174 Ry

     iteration #  6     ecut=    60.00 Ry     beta= 0.40
     Davidson diagonalization with overlap

---- Real-time Memory Report at c_bands before calling an iterative solver
           130 MiB given to the printing process from OS
             0 MiB allocation reported by mallinfo(arena+hblkhd)
        230541 MiB available memory on the node where the printing process lives
------------------
     ethr =  2.78E-04,  avg # of iterations =  2.6

     total cpu time spent up to now is        2.3 secs

     total energy              =   -1171.07572159 Ry
     estimated scf accuracy    <       0.00693990 Ry

     iteration #  7     ecut=    60.00 Ry     beta= 0.40
     Davidson diagonalization with overlap

---- Real-time Memory Report at c_bands before calling an iterative solver
           130 MiB given to the printing process from OS
             0 MiB allocation reported by mallinfo(arena+hblkhd)
        230534 MiB available memory on the node where the printing process lives
------------------
     ethr =  9.77E-06,  avg # of iterations =  4.7

     total cpu time spent up to now is        2.6 secs

     total energy              =   -1171.07695987 Ry
     estimated scf accuracy    <       0.00240447 Ry

     iteration #  8     ecut=    60.00 Ry     beta= 0.40
     Davidson diagonalization with overlap

---- Real-time Memory Report at c_bands before calling an iterative solver
           130 MiB given to the printing process from OS
             0 MiB allocation reported by mallinfo(arena+hblkhd)
        230509 MiB available memory on the node where the printing process lives
------------------
     ethr =  3.39E-06,  avg # of iterations =  2.9

     total cpu time spent up to now is        2.8 secs

     total energy              =   -1171.07732378 Ry
     estimated scf accuracy    <       0.00254952 Ry

     iteration #  9     ecut=    60.00 Ry     beta= 0.40
     Davidson diagonalization with overlap

---- Real-time Memory Report at c_bands before calling an iterative solver
           131 MiB given to the printing process from OS
             0 MiB allocation reported by mallinfo(arena+hblkhd)
        230488 MiB available memory on the node where the printing process lives
------------------
     ethr =  3.39E-06,  avg # of iterations =  2.0

     total cpu time spent up to now is        3.0 secs

     total energy              =   -1171.07753931 Ry
     estimated scf accuracy    <       0.00009811 Ry

     iteration # 10     ecut=    60.00 Ry     beta= 0.40
     Davidson diagonalization with overlap

---- Real-time Memory Report at c_bands before calling an iterative solver
           131 MiB given to the printing process from OS
             0 MiB allocation reported by mallinfo(arena+hblkhd)
        230485 MiB available memory on the node where the printing process lives
------------------
     ethr =  1.38E-07,  avg # of iterations =  2.3

     total cpu time spent up to now is        3.1 secs

     total energy              =   -1171.07756626 Ry
     estimated scf accuracy    <       0.00001134 Ry

     iteration # 11     ecut=    60.00 Ry     beta= 0.40
     Davidson diagonalization with overlap

---- Real-time Memory Report at c_bands before calling an iterative solver
           131 MiB given to the printing process from OS
             0 MiB allocation reported by mallinfo(arena+hblkhd)
        230485 MiB available memory on the node where the printing process lives
------------------
     ethr =  1.60E-08,  avg # of iterations =  2.3

     total cpu time spent up to now is        3.3 secs

     total energy              =   -1171.07756651 Ry
     estimated scf accuracy    <       0.00000185 Ry

     iteration # 12     ecut=    60.00 Ry     beta= 0.40
     Davidson diagonalization with overlap

---- Real-time Memory Report at c_bands before calling an iterative solver
           131 MiB given to the printing process from OS
             0 MiB allocation reported by mallinfo(arena+hblkhd)
        230507 MiB available memory on the node where the printing process lives
------------------
     ethr =  2.61E-09,  avg # of iterations =  2.3

     total cpu time spent up to now is        3.5 secs

     total energy              =   -1171.07756683 Ry
     estimated scf accuracy    <          9.3E-09 Ry

     iteration # 13     ecut=    60.00 Ry     beta= 0.40
     Davidson diagonalization with overlap

---- Real-time Memory Report at c_bands before calling an iterative solver
           131 MiB given to the printing process from OS
             0 MiB allocation reported by mallinfo(arena+hblkhd)
        230536 MiB available memory on the node where the printing process lives
------------------
     ethr =  1.31E-11,  avg # of iterations =  4.5

     total cpu time spent up to now is        3.8 secs

     total energy              =   -1171.07756683 Ry
     estimated scf accuracy    <          8.1E-09 Ry

     iteration # 14     ecut=    60.00 Ry     beta= 0.40
     Davidson diagonalization with overlap

---- Real-time Memory Report at c_bands before calling an iterative solver
           131 MiB given to the printing process from OS
             0 MiB allocation reported by mallinfo(arena+hblkhd)
        230569 MiB available memory on the node where the printing process lives
------------------
     ethr =  1.15E-11,  avg # of iterations =  1.1

     total cpu time spent up to now is        3.9 secs

     total energy              =   -1171.07756683 Ry
     estimated scf accuracy    <          2.9E-09 Ry

     iteration # 15     ecut=    60.00 Ry     beta= 0.40
     Davidson diagonalization with overlap

---- Real-time Memory Report at c_bands before calling an iterative solver
           131 MiB given to the printing process from OS
             0 MiB allocation reported by mallinfo(arena+hblkhd)
        230574 MiB available memory on the node where the printing process lives
------------------
     ethr =  4.05E-12,  avg # of iterations =  2.0

     total cpu time spent up to now is        4.1 secs

     End of self-consistent calculation

          k = 0.0000 0.0000 0.0000 (  2945 PWs)   bands (ev):

   -86.2967 -86.2840 -86.2840 -47.2759 -47.2759 -47.2759 -46.6586 -46.6586
   -46.6586 -46.6511 -46.6511 -46.6511  -0.6433   7.5528   7.5528   7.8709
     7.8709   7.8709   8.7658  11.4070  11.4070  11.4070  13.4790  13.4790
    13.4790  14.2280  14.2280  15.0148  15.0148  15.5062  15.5062  15.5062
    15.9590  15.9590  15.9590  16.1708  18.0681  20.4495  20.4495  20.4495
    22.7233  22.7233  27.6364

     occupation numbers 
     1.0000   1.0000   1.0000   1.0000   1.0000   1.0000   1.0000   1.0000
     1.0000   1.0000   1.0000   1.0000   1.0000   1.0000   1.0000   1.0000
     1.0000   1.0000   1.0000   1.0000   1.0000   1.0000   1.0000   1.0000
     1.0000   1.0000   1.0000   1.0000   1.0000   1.0000   1.0000   1.0000
     1.0000   1.0000   1.0000   1.0022   0.0000   0.0000   0.0000   0.0000
     0.0000   0.0000   0.0000

          k = 0.0000 0.0000 0.1250 (  2909 PWs)   bands (ev):

   -86.2963 -86.2844 -86.2840 -47.2757 -47.2757 -47.2757 -46.6590 -46.6584
   -46.6584 -46.6514 -46.6514 -46.6512  -0.5773   7.5726   7.5947   7.8610
     7.8610   7.8789   8.8123  11.0692  11.3644  11.3644  13.4755  13.5434
    13.5434  14.1283  14.2875  15.0099  15.1072  15.4313  15.4313  15.4917
    15.9591  15.9666  15.9666  16.1145  18.1767  19.7200  20.6598  20.6598
    22.7655  23.6404  27.3157

     occupation numbers 
     1.0000   1.0000   1.0000   1.0000   1.0000   1.0000   1.0000   1.0000
     1.0000   1.0000   1.0000   1.0000   1.0000   1.0000   1.0000   1.0000
     1.0000   1.0000   1.0000   1.0000   1.0000   1.0000   1.0000   1.0000
     1.0000   1.0000   1.0000   1.0000   1.0000   1.0000   1.0000   1.0000
     1.0000   1.0000   1.0000   1.0003   0.0000   0.0000   0.0000   0.0000
     0.0000   0.0000   0.0000

          k = 0.0000 0.0000 0.2500 (  2902 PWs)   bands (ev):

   -86.2951 -86.2856 -86.2840 -47.2754 -47.2754 -47.2751 -46.6599 -46.6577
   -46.6577 -46.6524 -46.6524 -46.6513  -0.4094   7.6208   7.6493   7.8368
     7.8368   7.8983   8.8510  10.6543  11.2776  11.2776  13.4668  13.6584
    13.6584  13.6976  14.4560  14.9966  15.0737  15.2946  15.2946  15.4569
    15.9540  15.9594  15.9929  15.9929  18.4042  18.9525  21.1643  21.1643
    22.9034  25.1721  25.8271

     occupation numbers 
     1.0000   1.0000   1.0000   1.0000   1.0000   1.0000   1.0000   1.0000
     1.0000   1.0000   1.0000   1.0000   1.0000   1.0000   1.0000   1.0000
     1.0000   1.0000   1.0000   1.0000   1.0000   1.0000   1.0000   1.0000
     1.0000   1.0000   1.0000   1.0000   1.0000   1.0000   1.0000   1.0000
     1.0000   1.0000   1.0000   1.0000   0.0000   0.0000   0.0000   0.0000
     0.0000   0.0000   0.0000

          k = 0.0000 0.0000 0.3750 (  2894 PWs)   bands (ev):

   -86.2935 -86.2872 -86.2839 -47.2750 -47.2750 -47.2745 -46.6608 -46.6567
   -46.6567 -46.6538 -46.6538 -46.6515  -0.2277   7.5882   7.6694   7.8122
     7.8122   7.9178   8.7489  10.9237  11.2082  11.2082  12.8265  13.4577
    13.7145  13.7145  14.6924  14.9117  14.9740  15.2172  15.2172  15.4224
    15.7331  15.9597  16.0334  16.0334  18.3258  18.9449  21.6800  21.6800
    23.1552  24.7857  26.0577

     occupation numbers 
     1.0000   1.0000   1.0000   1.0000   1.0000   1.0000   1.0000   1.0000
     1.0000   1.0000   1.0000   1.0000   1.0000   1.0000   1.0000   1.0000
     1.0000   1.0000   1.0000   1.0000   1.0000   1.0000   1.0000   1.0000
     1.0000   1.0000   1.0000   1.0000   1.0000   1.0000   1.0000   1.0000
     1.0000   1.0000   1.0000   1.0000   0.0000   0.0000   0.0000   0.0000
     0.0000   0.0000   0.0000

          k = 0.0000 0.0000-0.5000 (  2906 PWs)   bands (ev):

   -86.2925 -86.2882 -86.2839 -47.2749 -47.2749 -47.2743 -46.6612 -46.6558
   -46.6558 -46.6549 -46.6549 -46.6516  -0.1476   7.5112   7.6897   7.8020
     7.8020   7.9260   8.6957  11.1836  11.1836  11.6916  11.8546  13.4537
    13.7206  13.7206  14.8446  14.8652  14.9283  15.2009  15.2009  15.4082
    15.6024  15.9599  16.0555  16.0555  18.2534  19.0366  21.9024  21.9024
    23.3784  24.2792  25.8245

     occupation numbers 
     1.0000   1.0000   1.0000   1.0000   1.0000   1.0000   1.0000   1.0000
     1.0000   1.0000   1.0000   1.0000   1.0000   1.0000   1.0000   1.0000
     1.0000   1.0000   1.0000   1.0000   1.0000   1.0000   1.0000   1.0000
     1.0000   1.0000   1.0000   1.0000   1.0000   1.0000   1.0000   1.0000
     1.0000   1.0000   1.0000   1.0000   0.0000   0.0000   0.0000   0.0000
     0.0000   0.0000   0.0000

          k = 0.0000 0.1250 0.1250 (  2911 PWs)   bands (ev):

   -86.2959 -86.2846 -86.2842 -47.2803 -47.2756 -47.2708 -46.6614 -46.6582
   -46.6572 -46.6530 -46.6518 -46.6489  -0.5118   7.5981   7.6328   7.8505
     7.8638   7.8758   8.8633  10.8344  11.2366  11.3083  13.5171  13.5814
    13.5820  14.1129  14.2597  15.0321  15.0806  15.3268  15.4171  15.5097
    15.8898  15.9823  16.0445  16.1215  18.2704  19.8068  20.0055  20.8681
    23.2512  24.1842  26.0837

     occupation numbers 
     1.0000   1.0000   1.0000   1.0000   1.0000   1.0000   1.0000   1.0000
     1.0000   1.0000   1.0000   1.0000   1.0000   1.0000   1.0000   1.0000
     1.0000   1.0000   1.0000   1.0000   1.0000   1.0000   1.0000   1.0000
     1.0000   1.0000   1.0000   1.0000   1.0000   1.0000   1.0000   1.0000
     1.0000   1.0000   1.0000   1.0004   0.0000   0.0000   0.0000   0.0000
     0.0000   0.0000   0.0000

          k = 0.0000 0.1250 0.2500 (  2897 PWs)   bands (ev):

   -86.2947 -86.2857 -86.2843 -47.2840 -47.2752 -47.2663 -46.6645 -46.6576
   -46.6566 -46.6541 -46.6527 -46.6466  -0.3452   7.6369   7.7058   7.8283
     7.8459   7.8930   8.9051  10.4016  11.1727  11.1912  13.5475  13.5797
    13.7045  13.8008  14.3803  14.9732  15.0189  15.1695  15.3842  15.4978
    15.8275  15.8724  16.1334  16.1736  18.4925  19.0191  20.4176  21.3767
    23.5183  25.0484  25.6762

     occupation numbers 
     1.0000   1.0000   1.0000   1.0000   1.0000   1.0000   1.0000   1.0000
     1.0000   1.0000   1.0000   1.0000   1.0000   1.0000   1.0000   1.0000
     1.0000   1.0000   1.0000   1.0000   1.0000   1.0000   1.0000   1.0000
     1.0000   1.0000   1.0000   1.0000   1.0000   1.0000   1.0000   1.0000
     1.0000   1.0000   1.0006   1.0024   0.0000   0.0000   0.0000   0.0000
     0.0000   0.0000   0.0000

          k = 0.0000 0.1250 0.3750 (  2886 PWs)   bands (ev):

   -86.2931 -86.2872 -86.2843 -47.2863 -47.2749 -47.2632 -46.6670 -46.6567
   -46.6563 -46.6548 -46.6540 -46.6450  -0.1649   7.6388   7.7168   7.8012
     7.8244   7.9137   8.7639  10.4944  11.0930  11.2657  12.8725  13.5845
    13.7335  13.7587  14.5944  14.8367  15.0163  15.0822  15.3216  15.4771
    15.7005  15.7827  16.1697  16.2143  18.6081  18.7467  20.9196  21.9114
    23.4052  24.8391  25.9516

     occupation numbers 
     1.0000   1.0000   1.0000   1.0000   1.0000   1.0000   1.0000   1.0000
     1.0000   1.0000   1.0000   1.0000   1.0000   1.0000   1.0000   1.0000
     1.0000   1.0000   1.0000   1.0000   1.0000   1.0000   1.0000   1.0000
     1.0000   1.0000   1.0000   1.0000   1.0000   1.0000   1.0000   1.0000
     1.0000   1.0000   1.0021   1.0076   0.0000   0.0000   0.0000   0.0000
     0.0000   0.0000   0.0000

          k = 0.0000 0.1250-0.5000 (  2902 PWs)   bands (ev):

   -86.2921 -86.2882 -86.2843 -47.2870 -47.2748 -47.2621 -46.6679 -46.6563
   -46.6558 -46.6551 -46.6550 -46.6444  -0.0855   7.5892   7.7299   7.7794
     7.8154   7.9225   8.6896  10.6506  11.0566  11.6492  12.1350  13.6120
    13.7333  13.7495  14.7615  14.7649  14.9627  15.0651  15.3300  15.4683
    15.5921  15.7660  16.1637  16.2494  18.5586  18.7952  21.1435  22.1477
    23.1905  25.6718  25.7275

     occupation numbers 
     1.0000   1.0000   1.0000   1.0000   1.0000   1.0000   1.0000   1.0000
     1.0000   1.0000   1.0000   1.0000   1.0000   1.0000   1.0000   1.0000
     1.0000   1.0000   1.0000   1.0000   1.0000   1.0000   1.0000   1.0000
     1.0000   1.0000   1.0000   1.0000   1.0000   1.0000   1.0000   1.0000
     1.0000   1.0000   1.0017   1.0176   0.0000   0.0000   0.0000   0.0000
     0.0000   0.0000   0.0000

          k = 0.0000 0.2500 0.2500 (  2917 PWs)   bands (ev):

   -86.2937 -86.2861 -86.2849 -47.2911 -47.2749 -47.2585 -46.6706 -46.6572
   -46.6562 -46.6550 -46.6535 -46.6410  -0.1821   7.6522   7.8129   7.8405
     7.8614   7.8871   9.0008   9.8088  11.0095  11.1580  13.5087  13.6590
    13.7318  13.8637  14.2901  14.8241  14.9666  15.0823  15.5042  15.5203
    15.6934  15.7354  16.2899  16.3538  18.3180  19.2089  20.0149  21.9203
    23.5368  24.6757  26.1050

     occupation numbers 
     1.0000   1.0000   1.0000   1.0000   1.0000   1.0000   1.0000   1.0000
     1.0000   1.0000   1.0000   1.0000   1.0000   1.0000   1.0000   1.0000
     1.0000   1.0000   1.0000   1.0000   1.0000   1.0000   1.0000   1.0000
     1.0000   1.0000   1.0000   1.0000   1.0000   1.0000   1.0000   1.0000
     1.0000   1.0000   1.0381   1.0785   0.0000   0.0000   0.0000   0.0000
     0.0000   0.0000   0.0000

          k = 0.0000 0.2500 0.3750 (  2905 PWs)   bands (ev):

   -86.2922 -86.2873 -86.2851 -47.2959 -47.2746 -47.2532 -46.6749 -46.6565
   -46.6562 -46.6555 -46.6545 -46.6372  -0.0058   7.6710   7.7952   7.8548
     7.9039   7.9083   8.8129   9.6654  10.8538  11.3441  13.0199  13.6407
    13.7596  13.9732  14.4384  14.6909  14.8422  15.1481  15.5083  15.5196
    15.5858  15.6253  16.3540  16.4193  18.0480  19.2489  20.3923  22.5421
    22.7751  25.3311  25.6858

     occupation numbers 
     1.0000   1.0000   1.0000   1.0000   1.0000   1.0000   1.0000   1.0000
     1.0000   1.0000   1.0000   1.0000   1.0000   1.0000   1.0000   1.0000
     1.0000   1.0000   1.0000   1.0000   1.0000   1.0000   1.0000   1.0000
     1.0000   1.0000   1.0000   1.0000   1.0000   1.0000   1.0000   1.0000
     1.0000   1.0000   1.0786   1.0494   0.0000   0.0000   0.0000   0.0000
     0.0000   0.0000   0.0000

          k = 0.0000 0.2500-0.5000 (  2886 PWs)   bands (ev):

   -86.2912 -86.2882 -86.2852 -47.2975 -47.2744 -47.2514 -46.6765 -46.6563
   -46.6558 -46.6556 -46.6553 -46.6359   0.0717   7.7224   7.7369   7.8493
     7.8958   7.9139   8.6744   9.7420  10.7947  11.5987  12.5468  13.6506
    13.8313  13.9609  14.5978  14.6089  14.8221  15.0901  15.5228  15.5249
    15.5349  15.5978  16.3116  16.4719  17.9893  19.2512  20.6180  22.4452
    22.8426  25.4911  26.1787

     occupation numbers 
     1.0000   1.0000   1.0000   1.0000   1.0000   1.0000   1.0000   1.0000
     1.0000   1.0000   1.0000   1.0000   1.0000   1.0000   1.0000   1.0000
     1.0000   1.0000   1.0000   1.0000   1.0000   1.0000   1.0000   1.0000
     1.0000   1.0000   1.0000   1.0000   1.0000   1.0000   1.0000   1.0000
     1.0000   1.0000   1.0525   0.8944   0.0000   0.0000   0.0000   0.0000
     0.0000   0.0000   0.0000

          k = 0.0000 0.3750 0.3750 (  2910 PWs)   bands (ev):

   -86.2908 -86.2876 -86.2862 -47.3022 -47.2742 -47.2465 -46.6805 -46.6562
   -46.6562 -46.6560 -46.6551 -46.6319   0.1658   7.6900   7.8106   7.8836
     7.8977   8.0909   8.8496   8.9929  10.6491  11.5076  13.1819  13.2806
    13.8792  14.2368  14.4396  14.5933  14.6356  15.2462  15.4026  15.4026
    15.5426  15.7995  16.4382  16.5822  17.3352  19.7942  20.4320  21.9203
    23.3818  25.3958  25.9817

     occupation numbers 
     1.0000   1.0000   1.0000   1.0000   1.0000   1.0000   1.0000   1.0000
     1.0000   1.0000   1.0000   1.0000   1.0000   1.0000   1.0000   1.0000
     1.0000   1.0000   1.0000   1.0000   1.0000   1.0000   1.0000   1.0000
     1.0000   1.0000   1.0000   1.0000   1.0000   1.0000   1.0000   1.0000
     1.0000   1.0000   1.0093   0.3276   0.0000   0.0000   0.0000   0.0000
     0.0000   0.0000   0.0000

          k = 0.0000 0.3750-0.5000 (  2902 PWs)   bands (ev):

   -86.2898 -86.2882 -86.2866 -47.3045 -47.2741 -47.2441 -46.6825 -46.6563
   -46.6561 -46.6558 -46.6557 -46.6300   0.2412   7.7261   7.8024   7.8859
     7.9054   8.1375   8.6560   8.9654  10.5712  11.6624  12.9234  13.3289
    13.9467  14.3059  14.5215  14.5411  14.5860  15.1998  15.3208  15.3611
    15.5444  15.9531  16.4079  16.6466  17.0805  19.9801  20.5905  21.5039
    23.8986  25.2446  26.2074

     occupation numbers 
     1.0000   1.0000   1.0000   1.0000   1.0000   1.0000   1.0000   1.0000
     1.0000   1.0000   1.0000   1.0000   1.0000   1.0000   1.0000   1.0000
     1.0000   1.0000   1.0000   1.0000   1.0000   1.0000   1.0000   1.0000
     1.0000   1.0000   1.0000   1.0000   1.0000   1.0000   1.0000   1.0000
     1.0000   1.0000   1.0655   0.1090   0.0000   0.0000   0.0000   0.0000
     0.0000   0.0000   0.0000

          k = 0.0000-0.5000-0.5000 (  2864 PWs)   bands (ev):

   -86.2882 -86.2882 -86.2882 -47.3069 -47.2739 -47.2416 -46.6846 -46.6563
   -46.6563 -46.6558 -46.6558 -46.6280   0.3156   7.7451   7.8321   7.9019
     7.9019   8.2502   8.6448   8.6448  10.4860  11.7603  13.0849  13.0849
    14.0200  14.4687  14.4687  14.5317  14.5317  15.2101  15.2415  15.2425
    15.5493  16.3954  16.4428  16.4428  16.7152  20.6299  20.6299  20.7511
    25.1400  25.1400  26.0823

     occupation numbers 
     1.0000   1.0000   1.0000   1.0000   1.0000   1.0000   1.0000   1.0000
     1.0000   1.0000   1.0000   1.0000   1.0000   1.0000   1.0000   1.0000
     1.0000   1.0000   1.0000   1.0000   1.0000   1.0000   1.0000   1.0000
     1.0000   1.0000   1.0000   1.0000   1.0000   1.0000   1.0000   1.0000
     1.0000   1.0768   0.9968   0.9968   0.0214   0.0000   0.0000   0.0000
     0.0000   0.0000   0.0000

          k = 0.1250 0.1250 0.1250 (  2896 PWs)   bands (ev):

   -86.2955 -86.2846 -86.2846 -47.2850 -47.2706 -47.2706 -46.6627 -46.6590
   -46.6590 -46.6514 -46.6514 -46.6477  -0.4466   7.6457   7.6457   7.8583
     7.8609   7.8609   8.9151  10.8204  10.8204  11.3332  13.5283  13.6328
    13.6328  14.1655  14.1655  15.0465  15.0465  15.1731  15.4867  15.4867
    15.7648  16.0816  16.1408  16.1408  18.3445  20.0814  20.0814  20.1177
    24.1857  24.1857  26.0918

     occupation numbers 
     1.0000   1.0000   1.0000   1.0000   1.0000   1.0000   1.0000   1.0000
     1.0000   1.0000   1.0000   1.0000   1.0000   1.0000   1.0000   1.0000
     1.0000   1.0000   1.0000   1.0000   1.0000   1.0000   1.0000   1.0000
     1.0000   1.0000   1.0000   1.0000   1.0000   1.0000   1.0000   1.0000
     1.0000   1.0001   1.0008   1.0008   0.0000   0.0000   0.0000   0.0000
     0.0000   0.0000   0.0000

          k = 0.1250 0.1250 0.2500 (  2900 PWs)   bands (ev):

   -86.2944 -86.2857 -86.2846 -47.2901 -47.2703 -47.2647 -46.6657 -46.6619
   -46.6593 -46.6512 -46.6491 -46.6454  -0.2810   7.6773   7.7158   7.8243
     7.8559   7.8872   8.9569  10.3086  10.7913  11.2605  13.5141  13.6649
    13.7351  13.8702  14.3146  14.9562  14.9979  15.0574  15.4117  15.5087
    15.6427  16.0001  16.2050  16.3238  18.5231  19.2203  20.2292  20.8834
    23.9498  25.3564  25.5112

     occupation numbers 
     1.0000   1.0000   1.0000   1.0000   1.0000   1.0000   1.0000   1.0000
     1.0000   1.0000   1.0000   1.0000   1.0000   1.0000   1.0000   1.0000
     1.0000   1.0000   1.0000   1.0000   1.0000   1.0000   1.0000   1.0000
     1.0000   1.0000   1.0000   1.0000   1.0000   1.0000   1.0000   1.0000
     1.0000   1.0000   1.0059   1.0609   0.0000   0.0000   0.0000   0.0000
     0.0000   0.0000   0.0000

          k = 0.1250 0.1250 0.3750 (  2888 PWs)   bands (ev):

   -86.2928 -86.2872 -86.2846 -47.2935 -47.2700 -47.2605 -46.6683 -46.6642
   -46.6593 -46.6511 -46.6476 -46.6437  -0.1018   7.6900   7.7121   7.7842
     7.8501   7.9205   8.7892  10.3326  10.7677  11.3243  12.9237  13.6455
    13.7931  13.8038  14.5283  14.8462  14.9586  15.0205  15.3402  15.5109
    15.5659  15.8758  16.1158  16.4771  18.6889  18.8766  20.3132  21.8545
    23.4832  24.8155  25.7998

     occupation numbers 
     1.0000   1.0000   1.0000   1.0000   1.0000   1.0000   1.0000   1.0000
     1.0000   1.0000   1.0000   1.0000   1.0000   1.0000   1.0000   1.0000
     1.0000   1.0000   1.0000   1.0000   1.0000   1.0000   1.0000   1.0000
     1.0000   1.0000   1.0000   1.0000   1.0000   1.0000   1.0000   1.0000
     1.0000   1.0000   1.0003   0.8720   0.0000   0.0000   0.0000   0.0000
     0.0000   0.0000   0.0000

          k = 0.1250 0.1250-0.5000 (  2914 PWs)   bands (ev):

   -86.2918 -86.2882 -86.2846 -47.2947 -47.2699 -47.2590 -46.6693 -46.6650
   -46.6593 -46.6511 -46.6471 -46.6431  -0.0229   7.6395   7.7326   7.7615
     7.8393   7.9323   8.6986  10.4528  10.7592  11.6158  12.3088  13.7030
    13.7410  13.8216  14.6971  14.7933  14.8623  15.0252  15.3698  15.5094
    15.5121  15.8075  16.0633  16.5383  18.7506  18.8166  20.3238  22.4410
    23.2954  24.2930  26.2170

     occupation numbers 
     1.0000   1.0000   1.0000   1.0000   1.0000   1.0000   1.0000   1.0000
     1.0000   1.0000   1.0000   1.0000   1.0000   1.0000   1.0000   1.0000
     1.0000   1.0000   1.0000   1.0000   1.0000   1.0000   1.0000   1.0000
     1.0000   1.0000   1.0000   1.0000   1.0000   1.0000   1.0000   1.0000
     1.0000   1.0000   1.0000   0.5531   0.0000   0.0000   0.0000   0.0000
     0.0000   0.0000   0.0000

          k = 0.1250 0.2500 0.2500 (  2899 PWs)   bands (ev):

   -86.2933 -86.2861 -86.2852 -47.2978 -47.2680 -47.2585 -46.6707 -46.6637
   -46.6625 -46.6487 -46.6474 -46.6409  -0.1179   7.6738   7.7727   7.8302
     7.8708   7.9152   9.0411   9.8413  10.5774  11.2287  13.4631  13.7465
    13.7708  13.9518  14.2397  14.8488  14.9070  15.0355  15.4436  15.4748
    15.5175  15.9508  16.4067  16.4879  18.4207  19.3709  19.8617  21.0793
    23.7346  25.0735  25.9195

     occupation numbers 
     1.0000   1.0000   1.0000   1.0000   1.0000   1.0000   1.0000   1.0000
     1.0000   1.0000   1.0000   1.0000   1.0000   1.0000   1.0000   1.0000
     1.0000   1.0000   1.0000   1.0000   1.0000   1.0000   1.0000   1.0000
     1.0000   1.0000   1.0000   1.0000   1.0000   1.0000   1.0000   1.0000
     1.0000   1.0000   1.0668   0.8222   0.0000   0.0000   0.0000   0.0000
     0.0000   0.0000   0.0000

          k = 0.1250 0.2500 0.3750 (  2903 PWs)   bands (ev):

   -86.2919 -86.2873 -86.2854 -47.3031 -47.2675 -47.2530 -46.6750 -46.6658
   -46.6631 -46.6480 -46.6460 -46.6372   0.0584   7.6543   7.7549   7.8350
     7.8683   7.9897   8.8626   9.6748  10.5209  11.3643  13.0760  13.6243
    13.8672  14.0336  14.4061  14.7277  14.8670  15.0253  15.3304  15.5066
    15.5600  15.8226  16.3008  16.7025  18.1808  19.3532  19.8735  21.8422
    23.2181  24.6790  26.5116

     occupation numbers 
     1.0000   1.0000   1.0000   1.0000   1.0000   1.0000   1.0000   1.0000
     1.0000   1.0000   1.0000   1.0000   1.0000   1.0000   1.0000   1.0000
     1.0000   1.0000   1.0000   1.0000   1.0000   1.0000   1.0000   1.0000
     1.0000   1.0000   1.0000   1.0000   1.0000   1.0000   1.0000   1.0000
     1.0000   1.0000   1.0452   0.0299   0.0000   0.0000   0.0000   0.0000
     0.0000   0.0000   0.0000

          k = 0.1250 0.2500-0.5000 (  2890 PWs)   bands (ev):

   -86.2910 -86.2882 -86.2854 -47.3049 -47.2673 -47.2509 -46.6765 -46.6667
   -46.6632 -46.6479 -46.6455 -46.6358   0.1360   7.6662   7.7025   7.8448
     7.8537   8.0095   8.7288   9.7233  10.4974  11.5854  12.6645  13.6260
    13.9249  14.0366  14.5779  14.6418  14.8762  14.9369  15.3272  15.5255
    15.6080  15.7371  16.1919  16.8056  18.0988  19.3914  19.8165  22.5796
    22.8264  24.2306  26.3496

     occupation numbers 
     1.0000   1.0000   1.0000   1.0000   1.0000   1.0000   1.0000   1.0000
     1.0000   1.0000   1.0000   1.0000   1.0000   1.0000   1.0000   1.0000
     1.0000   1.0000   1.0000   1.0000   1.0000   1.0000   1.0000   1.0000
     1.0000   1.0000   1.0000   1.0000   1.0000   1.0000   1.0000   1.0000
     1.0000   1.0000   1.0041   0.0012   0.0000   0.0000   0.0000   0.0000
     0.0000   0.0000   0.0000

          k = 0.1250 0.3750 0.3750 (  2898 PWs)   bands (ev):

   -86.2907 -86.2876 -86.2864 -47.3097 -47.2667 -47.2465 -46.6805 -46.6661
   -46.6657 -46.6462 -46.6457 -46.6319   0.2315   7.6250   7.7606   7.8382
     7.8737   8.1212   8.9158   9.0881  10.3767  11.5169  13.2200  13.3697
    13.9636  14.2743  14.4047  14.6410  14.7259  15.0984  15.1304  15.5476
    15.6884  15.7545  16.4446  16.7777  17.4389  19.6972  20.0615  21.6657
    23.1087  25.0042  25.5297

     occupation numbers 
     1.0000   1.0000   1.0000   1.0000   1.0000   1.0000   1.0000   1.0000
     1.0000   1.0000   1.0000   1.0000   1.0000   1.0000   1.0000   1.0000
     1.0000   1.0000   1.0000   1.0000   1.0000   1.0000   1.0000   1.0000
     1.0000   1.0000   1.0000   1.0000   1.0000   1.0000   1.0000   1.0000
     1.0000   1.0000   0.9915   0.0032   0.0000   0.0000   0.0000   0.0000
     0.0000   0.0000   0.0000

          k = 0.1250 0.3750-0.5000 (  2890 PWs)   bands (ev):

   -86.2897 -86.2882 -86.2867 -47.3120 -47.2665 -47.2441 -46.6824 -46.6669
   -46.6659 -46.6459 -46.6453 -46.6300   0.3076   7.6441   7.7288   7.8195
     7.8779   8.1701   8.7763   9.0518  10.3203  11.6640  13.0333  13.3871
    14.0357  14.3320  14.4954  14.5807  14.7068  15.0024  15.1277  15.5620
    15.5967  15.9225  16.3563  16.9212  17.1025  19.9192  20.0185  21.6315
    23.1803  24.8028  25.3780

     occupation numbers 
     1.0000   1.0000   1.0000   1.0000   1.0000   1.0000   1.0000   1.0000
     1.0000   1.0000   1.0000   1.0000   1.0000   1.0000   1.0000   1.0000
     1.0000   1.0000   1.0000   1.0000   1.0000   1.0000   1.0000   1.0000
     1.0000   1.0000   1.0000   1.0000   1.0000   1.0000   1.0000   1.0000
     1.0000   1.0000   1.0795   0.0000   0.0000   0.0000   0.0000   0.0000
     0.0000   0.0000   0.0000

          k = 0.1250-0.5000-0.5000 (  2916 PWs)   bands (ev):

   -86.2882 -86.2882 -86.2882 -47.3145 -47.2663 -47.2416 -46.6846 -46.6669
   -46.6669 -46.6453 -46.6453 -46.6280   0.3830   7.6945   7.7355   7.7355
     7.8854   8.2430   8.8031   8.8031  10.2519  11.7599  13.1973  13.1973
    14.1071  14.4519  14.4519  14.6333  14.6333  14.9525  15.0707  15.5085
    15.5672  16.3521  16.4314  16.4314  16.9385  20.1656  20.1656  21.2307
    23.3150  25.0172  25.0172

     occupation numbers 
     1.0000   1.0000   1.0000   1.0000   1.0000   1.0000   1.0000   1.0000
     1.0000   1.0000   1.0000   1.0000   1.0000   1.0000   1.0000   1.0000
     1.0000   1.0000   1.0000   1.0000   1.0000   1.0000   1.0000   1.0000
     1.0000   1.0000   1.0000   1.0000   1.0000   1.0000   1.0000   1.0000
     1.0000   1.0777   1.0258   1.0258   0.0000   0.0000   0.0000   0.0000
     0.0000   0.0000   0.0000

          k = 0.2500 0.2500 0.2500 (  2905 PWs)   bands (ev):

   -86.2925 -86.2861 -86.2861 -47.3072 -47.2583 -47.2583 -46.6722 -46.6690
   -46.6690 -46.6426 -46.6426 -46.6395   0.0452   7.6654   7.6654   7.8724
     7.9326   7.9326   9.1006   9.9089   9.9089  11.2515  13.4030  13.8565
    13.8565  14.1281  14.1281  14.8622  14.9038  14.9038  15.2124  15.5091
    15.5091  16.0270  16.6232  16.6232  18.5278  19.3826  19.3826  20.7902
    24.1882  24.1882  25.7133

     occupation numbers 
     1.0000   1.0000   1.0000   1.0000   1.0000   1.0000   1.0000   1.0000
     1.0000   1.0000   1.0000   1.0000   1.0000   1.0000   1.0000   1.0000
     1.0000   1.0000   1.0000   1.0000   1.0000   1.0000   1.0000   1.0000
     1.0000   1.0000   1.0000   1.0000   1.0000   1.0000   1.0000   1.0000
     1.0000   1.0000   0.1703   0.1703   0.0000   0.0000   0.0000   0.0000
     0.0000   0.0000   0.0000

          k = 0.2500 0.2500 0.3750 (  2903 PWs)   bands (ev):

   -86.2912 -86.2873 -86.2861 -47.3137 -47.2581 -47.2513 -46.6759 -46.6734
   -46.6698 -46.6418 -46.6387 -46.6363   0.2218   7.5768   7.6223   7.8356
     7.9382   8.0460   8.9734   9.5932   9.9628  11.4166  13.2207  13.6621
    14.0228  14.1864  14.3433  14.7908  14.8631  14.9017  15.1019  15.5344
    15.5769  15.9591  16.3808  16.9532  18.4577  18.7154  19.4041  21.5591
    23.7961  23.8126  25.2035

     occupation numbers 
     1.0000   1.0000   1.0000   1.0000   1.0000   1.0000   1.0000   1.0000
     1.0000   1.0000   1.0000   1.0000   1.0000   1.0000   1.0000   1.0000
     1.0000   1.0000   1.0000   1.0000   1.0000   1.0000   1.0000   1.0000
     1.0000   1.0000   1.0000   1.0000   1.0000   1.0000   1.0000   1.0000
     1.0000   1.0000   1.0828   0.0000   0.0000   0.0000   0.0000   0.0000
     0.0000   0.0000   0.0000

          k = 0.2500 0.2500-0.5000 (  2892 PWs)   bands (ev):

   -86.2903 -86.2882 -86.2861 -47.3160 -47.2580 -47.2488 -46.6774 -46.6749
   -46.6699 -46.6417 -46.6373 -46.6349   0.2996   7.5430   7.5917   7.8032
     7.9394   8.0878   8.8598   9.5676   9.9815  11.5974  12.9811  13.6091
    14.0976  14.2212  14.5270  14.7221  14.7466  14.9346  15.0992  15.5853
    15.6295  15.8841  16.1799  17.1724  18.3325  18.4456  19.4786  22.5201
    22.6925  23.7290  25.3822

     occupation numbers 
     1.0000   1.0000   1.0000   1.0000   1.0000   1.0000   1.0000   1.0000
     1.0000   1.0000   1.0000   1.0000   1.0000   1.0000   1.0000   1.0000
     1.0000   1.0000   1.0000   1.0000   1.0000   1.0000   1.0000   1.0000
     1.0000   1.0000   1.0000   1.0000   1.0000   1.0000   1.0000   1.0000
     1.0000   1.0000   1.0029   0.0000   0.0000   0.0000   0.0000   0.0000
     0.0000   0.0000   0.0000

          k = 0.2500 0.3750 0.3750 (  2909 PWs)   bands (ev):

   -86.2902 -86.2876 -86.2869 -47.3213 -47.2550 -47.2464 -46.6805 -46.6747
   -46.6742 -46.6379 -46.6374 -46.6319   0.3989   7.4875   7.5403   7.7350
     7.9948   8.1322   9.0393   9.2598   9.8150  11.5727  13.3483  13.6610
    14.1386  14.3572  14.3745  14.7455  14.8757  14.8954  14.9008  15.5880
    15.6871  15.9120  16.4781  16.9196  17.7481  18.9071  19.1315  21.7039
    22.9743  24.5175  24.6572

     occupation numbers 
     1.0000   1.0000   1.0000   1.0000   1.0000   1.0000   1.0000   1.0000
     1.0000   1.0000   1.0000   1.0000   1.0000   1.0000   1.0000   1.0000
     1.0000   1.0000   1.0000   1.0000   1.0000   1.0000   1.0000   1.0000
     1.0000   1.0000   1.0000   1.0000   1.0000   1.0000   1.0000   1.0000
     1.0000   1.0000   0.8674   0.0000   0.0000   0.0000   0.0000   0.0000
     0.0000   0.0000   0.0000

          k = 0.2500 0.3750-0.5000 (  2912 PWs)   bands (ev):

   -86.2894 -86.2882 -86.2871 -47.3241 -47.2545 -47.2440 -46.6824 -46.6760
   -46.6745 -46.6376 -46.6362 -46.6300   0.4770   7.4624   7.5023   7.6629
     8.0031   8.1786   8.9871   9.1927   9.7977  11.6948  13.3709  13.5879
    14.2573  14.4008  14.4900  14.6778  14.8137  14.8810  14.8911  15.6120
    15.8326  15.8334  16.3011  17.1076  17.3191  18.8504  19.2487  21.8473
    22.5057  24.4756  24.9998

     occupation numbers 
     1.0000   1.0000   1.0000   1.0000   1.0000   1.0000   1.0000   1.0000
     1.0000   1.0000   1.0000   1.0000   1.0000   1.0000   1.0000   1.0000
     1.0000   1.0000   1.0000   1.0000   1.0000   1.0000   1.0000   1.0000
     1.0000   1.0000   1.0000   1.0000   1.0000   1.0000   1.0000   1.0000
     1.0000   1.0000   1.0453   0.0000   0.0000   0.0000   0.0000   0.0000
     0.0000   0.0000   0.0000

          k = 0.2500-0.5000-0.5000 (  2920 PWs)   bands (ev):

   -86.2882 -86.2882 -86.2882 -47.3269 -47.2540 -47.2416 -46.6845 -46.6761
   -46.6761 -46.6362 -46.6362 -46.6280   0.5553   7.4699   7.4699   7.5388
     8.0155   8.2258   9.0378   9.0378   9.7583  11.7740  13.5594  13.5594
    14.3484  14.4739  14.4739  14.7271  14.8069  14.8069  14.8166  15.6104
    15.7543  16.2019  16.3770  16.3770  17.3115  19.1096  19.1096  21.4435
    22.4644  24.9533  24.9533

     occupation numbers 
     1.0000   1.0000   1.0000   1.0000   1.0000   1.0000   1.0000   1.0000
     1.0000   1.0000   1.0000   1.0000   1.0000   1.0000   1.0000   1.0000
     1.0000   1.0000   1.0000   1.0000   1.0000   1.0000   1.0000   1.0000
     1.0000   1.0000   1.0000   1.0000   1.0000   1.0000   1.0000   1.0000
     1.0000   1.0054   1.0832   1.0832   0.0000   0.0000   0.0000   0.0000
     0.0000   0.0000   0.0000

          k = 0.3750 0.3750 0.3750 (  2917 PWs)   bands (ev):

   -86.2895 -86.2876 -86.2876 -47.3298 -47.2464 -47.2464 -46.6810 -46.6799
   -46.6799 -46.6324 -46.6324 -46.6313   0.5811   7.3754   7.3754   7.5528
     8.1271   8.1271   9.1208   9.3791   9.3791  11.6935  13.5867  14.1328
    14.1328  14.4423  14.4423  14.7171  14.8113  14.8113  14.9987  15.6551
    15.6551  15.9944  16.5943  16.5943  18.1028  18.1028  18.3255  21.1168
    23.4662  24.5869  24.5869

     occupation numbers 
     1.0000   1.0000   1.0000   1.0000   1.0000   1.0000   1.0000   1.0000
     1.0000   1.0000   1.0000   1.0000   1.0000   1.0000   1.0000   1.0000
     1.0000   1.0000   1.0000   1.0000   1.0000   1.0000   1.0000   1.0000
     1.0000   1.0000   1.0000   1.0000   1.0000   1.0000   1.0000   1.0000
     1.0000   1.0000   0.2743   0.2743   0.0000   0.0000   0.0000   0.0000
     0.0000   0.0000   0.0000

          k = 0.3750 0.3750-0.5000 (  2938 PWs)   bands (ev):

   -86.2888 -86.2882 -86.2876 -47.3329 -47.2463 -47.2433 -46.6826 -46.6819
   -46.6802 -46.6320 -46.6304 -46.6297   0.6618   7.3159   7.3368   7.4487
     8.1236   8.1818   9.1349   9.2447   9.4176  11.7676  13.8647  13.9264
    14.4769  14.4886  14.5373  14.6058  14.7144  14.8910  14.9836  15.7061
    15.7229  15.9577  16.2241  16.7366  17.5704  18.1435  18.4006  20.7019
    23.6400  24.5946  24.9843

     occupation numbers 
     1.0000   1.0000   1.0000   1.0000   1.0000   1.0000   1.0000   1.0000
     1.0000   1.0000   1.0000   1.0000   1.0000   1.0000   1.0000   1.0000
     1.0000   1.0000   1.0000   1.0000   1.0000   1.0000   1.0000   1.0000
     1.0000   1.0000   1.0000   1.0000   1.0000   1.0000   1.0000   1.0000
     1.0000   1.0000   1.0097   0.0116   0.0000   0.0000   0.0000   0.0000
     0.0000   0.0000   0.0000

          k = 0.3750-0.5000-0.5000 (  2916 PWs)   bands (ev):

   -86.2882 -86.2882 -86.2882 -47.3361 -47.2448 -47.2416 -46.6844 -46.6822
   -46.6822 -46.6301 -46.6301 -46.6280   0.7437   7.2780   7.2780   7.3216
     8.1470   8.2087   9.1836   9.1836   9.3636  11.8117  14.1502  14.1502
    14.5113  14.5113  14.5795  14.6542  14.6953  14.9429  14.9429  15.6538
    15.9143  15.9224  16.2010  16.2010  17.5917  18.0958  18.0958  20.2256
    23.9951  25.0139  25.0139

     occupation numbers 
     1.0000   1.0000   1.0000   1.0000   1.0000   1.0000   1.0000   1.0000
     1.0000   1.0000   1.0000   1.0000   1.0000   1.0000   1.0000   1.0000
     1.0000   1.0000   1.0000   1.0000   1.0000   1.0000   1.0000   1.0000
     1.0000   1.0000   1.0000   1.0000   1.0000   1.0000   1.0000   1.0000
     1.0000   1.0000   1.0053   1.0053   0.0000   0.0000   0.0000   0.0000
     0.0000   0.0000   0.0000

          k =-0.5000-0.5000-0.5000 (  2872 PWs)   bands (ev):

   -86.2882 -86.2882 -86.2882 -47.3393 -47.2416 -47.2416 -46.6844 -46.6844
   -46.6844 -46.6280 -46.6280 -46.6280   0.8275   7.2100   7.2100   7.2100
     8.2017   8.2017   9.2287   9.2287   9.2287  11.8353  14.5282  14.5282
    14.5282  14.6006  14.6006  14.6006  14.9471  14.9471  14.9471  15.6717
    15.6717  15.9822  15.9822  15.9822  17.6952  17.6952  17.6952  19.8082
    25.0574  25.0574  25.0574

     occupation numbers 
     1.0000   1.0000   1.0000   1.0000   1.0000   1.0000   1.0000   1.0000
     1.0000   1.0000   1.0000   1.0000   1.0000   1.0000   1.0000   1.0000
     1.0000   1.0000   1.0000   1.0000   1.0000   1.0000   1.0000   1.0000
     1.0000   1.0000   1.0000   1.0000   1.0000   1.0000   1.0000   1.0000
     1.0000   1.0000   1.0000   1.0000   0.0000   0.0000   0.0000   0.0000
     0.0000   0.0000   0.0000

     the Fermi energy is    16.5670 ev

!    total energy              =   -1171.07756683 Ry
     estimated scf accuracy    <          3.9E-11 Ry
     smearing contrib. (-TS)   =       0.00128431 Ry
     internal energy E=F+TS    =   -1171.07885114 Ry

     The total energy is F=E-TS. E is the sum of the following terms:
     one-electron contribution =    -669.79132357 Ry
     hartree contribution      =     387.06183248 Ry
     xc contribution           =    -153.66084626 Ry
     ewald contribution        =    -734.68851379 Ry

     convergence has been achieved in  15 iterations

     Forces acting on atoms (cartesian axes, Ry/au):

     atom    1 type  1   force =     0.00000000    0.00000000    0.00000000
     atom    2 type  3   force =     0.00000000    0.00000000    0.00000000
     atom    3 type  3   force =     0.00000000    0.00000000    0.00000000
     atom    4 type  3   force =     0.00000000    0.00000000    0.00000000
     atom    5 type  2   force =     0.00000000    0.00000000    0.00000000
     The non-local contrib.  to forces
     atom    1 type  1   force =     0.00000000    0.00000000    0.00000000
     atom    2 type  3   force =     0.00000000    0.00000000    0.00000000
     atom    3 type  3   force =     0.00000000    0.00000000    0.00000000
     atom    4 type  3   force =     0.00000000    0.00000000    0.00000000
     atom    5 type  2   force =     0.00000000    0.00000000    0.00000000
     The ionic contribution  to forces
     atom    1 type  1   force =     0.00000000    0.00000000    0.00000000
     atom    2 type  3   force =     0.00000000   -0.00000000   -0.00000000
     atom    3 type  3   force =    -0.00000000    0.00000000   -0.00000000
     atom    4 type  3   force =    -0.00000000   -0.00000000    0.00000000
     atom    5 type  2   force =    -0.00000000   -0.00000000   -0.00000000
     The local contribution  to forces
     atom    1 type  1   force =     0.00000001    0.00000001    0.00000001
     atom    2 type  3   force =     0.00000004    0.00000000    0.00000000
     atom    3 type  3   force =     0.00000000    0.00000004    0.00000000
     atom    4 type  3   force =     0.00000000    0.00000000    0.00000004
     atom    5 type  2   force =     0.00000000    0.00000000    0.00000000
     The core correction contribution to forces
     atom    1 type  1   force =     0.00000000    0.00000000    0.00000000
     atom    2 type  3   force =     0.00000000   -0.00000000   -0.00000000
     atom    3 type  3   force =    -0.00000000    0.00000000   -0.00000000
     atom    4 type  3   force =    -0.00000000   -0.00000000    0.00000000
     atom    5 type  2   force =    -0.00000000   -0.00000000   -0.00000000
     The Hubbard contrib.    to forces
     atom    1 type  1   force =     0.00000000    0.00000000    0.00000000
     atom    2 type  3   force =     0.00000000    0.00000000    0.00000000
     atom    3 type  3   force =     0.00000000    0.00000000    0.00000000
     atom    4 type  3   force =     0.00000000    0.00000000    0.00000000
     atom    5 type  2   force =     0.00000000    0.00000000    0.00000000
     The SCF correction term to forces
     atom    1 type  1   force =     0.00000000    0.00000000    0.00000000
     atom    2 type  3   force =     0.00000000   -0.00000000   -0.00000000
     atom    3 type  3   force =    -0.00000000    0.00000000   -0.00000000
     atom    4 type  3   force =    -0.00000000   -0.00000000    0.00000000
     atom    5 type  2   force =    -0.00000000   -0.00000000   -0.00000000

     Total force =     0.000000     Total SCF correction =     0.000000


     Computing stress (Cartesian axis) and pressure

          total   stress  (Ry/bohr**3)                   (kbar)     P=        0.26
   0.00000174   0.00000000   0.00000000            0.26        0.00        0.00
   0.00000000   0.00000174   0.00000000            0.00        0.26        0.00
   0.00000000   0.00000000   0.00000174            0.00        0.00        0.26

     kinetic stress (kbar)  50628.82      0.00      0.00
                                0.00  50628.82      0.00
                                0.00      0.00  50628.82

     local   stress (kbar)  -3619.96     -0.00     -0.00
                               -0.00  -3619.96     -0.00
                               -0.00     -0.00  -3619.96

     nonloc. stress (kbar)  15652.35      0.00      0.00
                                0.00  15652.35      0.00
                                0.00      0.00  15652.35

     hartree stress (kbar)  51343.09      0.00     -0.00
                                0.00  51343.09      0.00
                               -0.00      0.00  51343.09

     exc-cor stress (kbar)  -4085.13     -0.00      0.00
                               -0.00  -4085.13      0.00
                                0.00      0.00  -4085.13

     corecor stress (kbar) -12463.74     -0.00      0.00
                               -0.00 -12463.74      0.00
                                0.00      0.00 -12463.74

     ewald   stress (kbar) -97455.18     -0.00     -0.00
                               -0.00 -97455.18     -0.00
                               -0.00     -0.00 -97455.18

     hubbard stress (kbar)      0.00      0.00      0.00
                                0.00      0.00      0.00
                                0.00      0.00      0.00

     DFT-D   stress (kbar)      0.00      0.00      0.00
                                0.00      0.00      0.00
                                0.00      0.00      0.00

     XDM     stress (kbar)      0.00      0.00      0.00
                                0.00      0.00      0.00
                                0.00      0.00      0.00

     dft-nl  stress (kbar)      0.00      0.00      0.00
                                0.00      0.00      0.00
                                0.00      0.00      0.00

     TS-vdW  stress (kbar)      0.00      0.00      0.00
                                0.00      0.00      0.00
                                0.00      0.00      0.00


                                0.00      0.00      0.00
                                0.00      0.00      0.00


                                0.00      0.00      0.00


     Writing all to output data dir ./out/aiida.save/

     init_run     :      0.58s CPU      0.62s WALL (       1 calls)
     electrons    :      2.97s CPU      3.08s WALL (       1 calls)
     forces       :      0.04s CPU      0.05s WALL (       1 calls)
     stress       :      0.11s CPU      0.11s WALL (       1 calls)

     Called by init_run:
     wfcinit      :      0.06s CPU      0.06s WALL (       1 calls)
     wfcinit:atom :      0.00s CPU      0.00s WALL (       5 calls)
     wfcinit:wfcr :      0.06s CPU      0.06s WALL (       5 calls)
     potinit      :      0.25s CPU      0.26s WALL (       1 calls)
     hinit0       :      0.24s CPU      0.25s WALL (       1 calls)

     Called by electrons:
     c_bands      :      2.49s CPU      2.56s WALL (      15 calls)
     sum_band     :      0.29s CPU      0.30s WALL (      15 calls)
     v_of_rho     :      0.09s CPU      0.10s WALL (      16 calls)
     v_h          :      0.01s CPU      0.01s WALL (      16 calls)
     v_xc         :      0.09s CPU      0.10s WALL (      18 calls)
     newd         :      0.04s CPU      0.04s WALL (      16 calls)
     mix_rho      :      0.02s CPU      0.02s WALL (      15 calls)

     Called by c_bands:
     init_us_2    :      0.02s CPU      0.02s WALL (     165 calls)
     cegterg      :      2.17s CPU      2.22s WALL (      75 calls)

     Called by sum_band:
     sum_band:wei :      0.03s CPU      0.03s WALL (      15 calls)
     sum_band:loo :      0.18s CPU      0.18s WALL (      15 calls)
     sum_band:buf :      0.00s CPU      0.00s WALL (      75 calls)
     sum_band:ini :      0.01s CPU      0.01s WALL (      75 calls)
     sum_band:cal :      0.02s CPU      0.02s WALL (      75 calls)
     sum_band:bec :      0.00s CPU      0.00s WALL (      75 calls)
     addusdens    :      0.05s CPU      0.05s WALL (      15 calls)
     addusd:skk   :      0.00s CPU      0.00s WALL (      45 calls)
     addusd:dgemm :      0.01s CPU      0.01s WALL (      45 calls)
     addusd:qvan2 :      0.02s CPU      0.02s WALL (      45 calls)

     Called by *egterg:
     cdiaghg      :      0.90s CPU      0.92s WALL (     290 calls)
     cegterg:over :      0.11s CPU      0.12s WALL (     215 calls)
     cegterg:upda :      0.07s CPU      0.07s WALL (     215 calls)
     cegterg:last :      0.13s CPU      0.13s WALL (     162 calls)
     cdiaghg:chol :      0.04s CPU      0.04s WALL (     290 calls)
     cdiaghg:inve :      0.01s CPU      0.01s WALL (     290 calls)
     cdiaghg:para :      0.06s CPU      0.07s WALL (     580 calls)
     h_psi        :      0.89s CPU      0.93s WALL (     295 calls)
     s_psi        :      0.05s CPU      0.05s WALL (     295 calls)
     g_psi        :      0.00s CPU      0.00s WALL (     215 calls)

     Called by h_psi:
     h_psi:calbec :      0.07s CPU      0.07s WALL (     295 calls)
     vloc_psi     :      0.76s CPU      0.79s WALL (     295 calls)
     add_vuspsi   :      0.06s CPU      0.06s WALL (     295 calls)

     General routines
     calbec       :      0.10s CPU      0.11s WALL (     395 calls)
     fft          :      0.23s CPU      0.23s WALL (     231 calls)
     ffts         :      0.23s CPU      0.23s WALL (      31 calls)
     fftw         :      0.84s CPU      0.87s WALL (   20165 calls)
     interpolate  :      0.23s CPU      0.23s WALL (      16 calls)

     Parallel routines

     PWSCF        :      4.02s CPU      4.38s WALL


   This run was terminated on:  21:35:33   8Sep2022            

=------------------------------------------------------------------------------=
   JOB DONE.
=------------------------------------------------------------------------------=